V -t * -v 1.0a5 -a 0
A -t * -n 1 -p 0 -o 0x7fffffff -c 30 -a 1
A -t * -h 1 -m 1073741823 -s 0
c -t * -i 1 -n blue
c -t * -i 2 -n red
n -t * -a 4 -s 4 -S UP -v circle -c black -i black
n -t * -a 0 -s 0 -S UP -v circle -c black -i black
n -t * -a 5 -s 5 -S UP -v box -c red -i red
n -t * -a 1 -s 1 -S UP -v hexagon -c red -i red
n -t * -a 6 -s 6 -S UP -v circle -c black -i black
n -t * -a 2 -s 2 -S UP -v hexagon -c blue -i blue
n -t * -a 7 -s 7 -S UP -v box -c blue -i blue
n -t * -a 3 -s 3 -S UP -v circle -c black -i black
l -t * -s 0 -d 1 -S UP -r 5000000 -D 0.01 -c black -o left-down
l -t * -s 0 -d 2 -S UP -r 5000000 -D 0.01 -c black -o left-down
l -t * -s 0 -d 7 -S UP -r 5000000 -D 0.01 -c black -o left-down
l -t * -s 0 -d 5 -S UP -r 5000000 -D 0.01 -c black -o right-down
l -t * -s 0 -d 3 -S UP -r 5000000 -D 0.01 -c black -o right-down
l -t * -s 0 -d 4 -S UP -r 5000000 -D 0.01 -c black -o right-down
l -t * -s 0 -d 6 -S UP -r 5000000 -D 0.01 -c black -o right-down
+ -t 0.05 -s 2 -d 0 -p cbr -e 1000 -c 0 -i 0 -a 0 -x {2.0 7.0 0 ------- null}
- -t 0.05 -s 2 -d 0 -p cbr -e 1000 -c 0 -i 0 -a 0 -x {2.0 7.0 0 ------- null}
h -t 0.05 -s 2 -d 0 -p cbr -e 1000 -c 0 -i 0 -a 0 -x {2.0 7.0 -1 ------- null}
+ -t 0.058 -s 2 -d 0 -p cbr -e 1000 -c 0 -i 1 -a 0 -x {2.0 7.0 1 ------- null}
- -t 0.058 -s 2 -d 0 -p cbr -e 1000 -c 0 -i 1 -a 0 -x {2.0 7.0 1 ------- null}
h -t 0.058 -s 2 -d 0 -p cbr -e 1000 -c 0 -i 1 -a 0 -x {2.0 7.0 -1 ------- null}
r -t 0.0616 -s 2 -d 0 -p cbr -e 1000 -c 0 -i 0 -a 0 -x {2.0 7.0 0 ------- null}
+ -t 0.0616 -s 0 -d 7 -p cbr -e 1000 -c 0 -i 0 -a 0 -x {2.0 7.0 0 ------- null}
- -t 0.0616 -s 0 -d 7 -p cbr -e 1000 -c 0 -i 0 -a 0 -x {2.0 7.0 0 ------- null}
h -t 0.0616 -s 0 -d 7 -p cbr -e 1000 -c 0 -i 0 -a 0 -x {2.0 7.0 -1 ------- null}
+ -t 0.066 -s 2 -d 0 -p cbr -e 1000 -c 0 -i 2 -a 0 -x {2.0 7.0 2 ------- null}
- -t 0.066 -s 2 -d 0 -p cbr -e 1000 -c 0 -i 2 -a 0 -x {2.0 7.0 2 ------- null}
h -t 0.066 -s 2 -d 0 -p cbr -e 1000 -c 0 -i 2 -a 0 -x {2.0 7.0 -1 ------- null}
r -t 0.0696 -s 2 -d 0 -p cbr -e 1000 -c 0 -i 1 -a 0 -x {2.0 7.0 1 ------- null}
+ -t 0.0696 -s 0 -d 7 -p cbr -e 1000 -c 0 -i 1 -a 0 -x {2.0 7.0 1 ------- null}
- -t 0.0696 -s 0 -d 7 -p cbr -e 1000 -c 0 -i 1 -a 0 -x {2.0 7.0 1 ------- null}
h -t 0.0696 -s 0 -d 7 -p cbr -e 1000 -c 0 -i 1 -a 0 -x {2.0 7.0 -1 ------- null}
r -t 0.0732 -s 0 -d 7 -p cbr -e 1000 -c 0 -i 0 -a 0 -x {2.0 7.0 0 ------- null}
+ -t 0.074 -s 2 -d 0 -p cbr -e 1000 -c 0 -i 3 -a 0 -x {2.0 7.0 3 ------- null}
- -t 0.074 -s 2 -d 0 -p cbr -e 1000 -c 0 -i 3 -a 0 -x {2.0 7.0 3 ------- null}
h -t 0.074 -s 2 -d 0 -p cbr -e 1000 -c 0 -i 3 -a 0 -x {2.0 7.0 -1 ------- null}
r -t 0.0776 -s 2 -d 0 -p cbr -e 1000 -c 0 -i 2 -a 0 -x {2.0 7.0 2 ------- null}
+ -t 0.0776 -s 0 -d 7 -p cbr -e 1000 -c 0 -i 2 -a 0 -x {2.0 7.0 2 ------- null}
- -t 0.0776 -s 0 -d 7 -p cbr -e 1000 -c 0 -i 2 -a 0 -x {2.0 7.0 2 ------- null}
h -t 0.0776 -s 0 -d 7 -p cbr -e 1000 -c 0 -i 2 -a 0 -x {2.0 7.0 -1 ------- null}
r -t 0.0812 -s 0 -d 7 -p cbr -e 1000 -c 0 -i 1 -a 0 -x {2.0 7.0 1 ------- null}
+ -t 0.082 -s 2 -d 0 -p cbr -e 1000 -c 0 -i 4 -a 0 -x {2.0 7.0 4 ------- null}
- -t 0.082 -s 2 -d 0 -p cbr -e 1000 -c 0 -i 4 -a 0 -x {2.0 7.0 4 ------- null}
h -t 0.082 -s 2 -d 0 -p cbr -e 1000 -c 0 -i 4 -a 0 -x {2.0 7.0 -1 ------- null}
r -t 0.0856 -s 2 -d 0 -p cbr -e 1000 -c 0 -i 3 -a 0 -x {2.0 7.0 3 ------- null}
+ -t 0.0856 -s 0 -d 7 -p cbr -e 1000 -c 0 -i 3 -a 0 -x {2.0 7.0 3 ------- null}
- -t 0.0856 -s 0 -d 7 -p cbr -e 1000 -c 0 -i 3 -a 0 -x {2.0 7.0 3 ------- null}
h -t 0.0856 -s 0 -d 7 -p cbr -e 1000 -c 0 -i 3 -a 0 -x {2.0 7.0 -1 ------- null}
r -t 0.0892 -s 0 -d 7 -p cbr -e 1000 -c 0 -i 2 -a 0 -x {2.0 7.0 2 ------- null}
+ -t 0.09 -s 2 -d 0 -p cbr -e 1000 -c 0 -i 5 -a 0 -x {2.0 7.0 5 ------- null}
- -t 0.09 -s 2 -d 0 -p cbr -e 1000 -c 0 -i 5 -a 0 -x {2.0 7.0 5 ------- null}
h -t 0.09 -s 2 -d 0 -p cbr -e 1000 -c 0 -i 5 -a 0 -x {2.0 7.0 -1 ------- null}
r -t 0.0936 -s 2 -d 0 -p cbr -e 1000 -c 0 -i 4 -a 0 -x {2.0 7.0 4 ------- null}
+ -t 0.0936 -s 0 -d 7 -p cbr -e 1000 -c 0 -i 4 -a 0 -x {2.0 7.0 4 ------- null}
- -t 0.0936 -s 0 -d 7 -p cbr -e 1000 -c 0 -i 4 -a 0 -x {2.0 7.0 4 ------- null}
h -t 0.0936 -s 0 -d 7 -p cbr -e 1000 -c 0 -i 4 -a 0 -x {2.0 7.0 -1 ------- null}
r -t 0.0972 -s 0 -d 7 -p cbr -e 1000 -c 0 -i 3 -a 0 -x {2.0 7.0 3 ------- null}
+ -t 0.098 -s 2 -d 0 -p cbr -e 1000 -c 0 -i 6 -a 0 -x {2.0 7.0 6 ------- null}
- -t 0.098 -s 2 -d 0 -p cbr -e 1000 -c 0 -i 6 -a 0 -x {2.0 7.0 6 ------- null}
h -t 0.098 -s 2 -d 0 -p cbr -e 1000 -c 0 -i 6 -a 0 -x {2.0 7.0 -1 ------- null}
+ -t 0.1 -s 1 -d 0 -p tcp -e 40 -c 0 -i 7 -a 0 -x {1.0 5.0 0 ------- null}
- -t 0.1 -s 1 -d 0 -p tcp -e 40 -c 0 -i 7 -a 0 -x {1.0 5.0 0 ------- null}
h -t 0.1 -s 1 -d 0 -p tcp -e 40 -c 0 -i 7 -a 0 -x {1.0 5.0 -1 ------- null}
r -t 0.1016 -s 2 -d 0 -p cbr -e 1000 -c 0 -i 5 -a 0 -x {2.0 7.0 5 ------- null}
+ -t 0.1016 -s 0 -d 7 -p cbr -e 1000 -c 0 -i 5 -a 0 -x {2.0 7.0 5 ------- null}
- -t 0.1016 -s 0 -d 7 -p cbr -e 1000 -c 0 -i 5 -a 0 -x {2.0 7.0 5 ------- null}
h -t 0.1016 -s 0 -d 7 -p cbr -e 1000 -c 0 -i 5 -a 0 -x {2.0 7.0 -1 ------- null}
r -t 0.1052 -s 0 -d 7 -p cbr -e 1000 -c 0 -i 4 -a 0 -x {2.0 7.0 4 ------- null}
+ -t 0.106 -s 2 -d 0 -p cbr -e 1000 -c 0 -i 8 -a 0 -x {2.0 7.0 7 ------- null}
- -t 0.106 -s 2 -d 0 -p cbr -e 1000 -c 0 -i 8 -a 0 -x {2.0 7.0 7 ------- null}
h -t 0.106 -s 2 -d 0 -p cbr -e 1000 -c 0 -i 8 -a 0 -x {2.0 7.0 -1 ------- null}
r -t 0.1096 -s 2 -d 0 -p cbr -e 1000 -c 0 -i 6 -a 0 -x {2.0 7.0 6 ------- null}
+ -t 0.1096 -s 0 -d 7 -p cbr -e 1000 -c 0 -i 6 -a 0 -x {2.0 7.0 6 ------- null}
- -t 0.1096 -s 0 -d 7 -p cbr -e 1000 -c 0 -i 6 -a 0 -x {2.0 7.0 6 ------- null}
h -t 0.1096 -s 0 -d 7 -p cbr -e 1000 -c 0 -i 6 -a 0 -x {2.0 7.0 -1 ------- null}
r -t 0.110064 -s 1 -d 0 -p tcp -e 40 -c 0 -i 7 -a 0 -x {1.0 5.0 0 ------- null}
+ -t 0.110064 -s 0 -d 5 -p tcp -e 40 -c 0 -i 7 -a 0 -x {1.0 5.0 0 ------- null}
- -t 0.110064 -s 0 -d 5 -p tcp -e 40 -c 0 -i 7 -a 0 -x {1.0 5.0 0 ------- null}
h -t 0.110064 -s 0 -d 5 -p tcp -e 40 -c 0 -i 7 -a 0 -x {1.0 5.0 -1 ------- null}
r -t 0.1132 -s 0 -d 7 -p cbr -e 1000 -c 0 -i 5 -a 0 -x {2.0 7.0 5 ------- null}
+ -t 0.114 -s 2 -d 0 -p cbr -e 1000 -c 0 -i 9 -a 0 -x {2.0 7.0 8 ------- null}
- -t 0.114 -s 2 -d 0 -p cbr -e 1000 -c 0 -i 9 -a 0 -x {2.0 7.0 8 ------- null}
h -t 0.114 -s 2 -d 0 -p cbr -e 1000 -c 0 -i 9 -a 0 -x {2.0 7.0 -1 ------- null}
r -t 0.1176 -s 2 -d 0 -p cbr -e 1000 -c 0 -i 8 -a 0 -x {2.0 7.0 7 ------- null}
+ -t 0.1176 -s 0 -d 7 -p cbr -e 1000 -c 0 -i 8 -a 0 -x {2.0 7.0 7 ------- null}
- -t 0.1176 -s 0 -d 7 -p cbr -e 1000 -c 0 -i 8 -a 0 -x {2.0 7.0 7 ------- null}
h -t 0.1176 -s 0 -d 7 -p cbr -e 1000 -c 0 -i 8 -a 0 -x {2.0 7.0 -1 ------- null}
r -t 0.120128 -s 0 -d 5 -p tcp -e 40 -c 0 -i 7 -a 0 -x {1.0 5.0 0 ------- null}
+ -t 0.120128 -s 5 -d 0 -p ack -e 40 -c 0 -i 10 -a 0 -x {5.0 1.0 0 ------- null}
- -t 0.120128 -s 5 -d 0 -p ack -e 40 -c 0 -i 10 -a 0 -x {5.0 1.0 0 ------- null}
h -t 0.120128 -s 5 -d 0 -p ack -e 40 -c 0 -i 10 -a 0 -x {5.0 1.0 -1 ------- null}
r -t 0.1212 -s 0 -d 7 -p cbr -e 1000 -c 0 -i 6 -a 0 -x {2.0 7.0 6 ------- null}
+ -t 0.122 -s 2 -d 0 -p cbr -e 1000 -c 0 -i 11 -a 0 -x {2.0 7.0 9 ------- null}
- -t 0.122 -s 2 -d 0 -p cbr -e 1000 -c 0 -i 11 -a 0 -x {2.0 7.0 9 ------- null}
h -t 0.122 -s 2 -d 0 -p cbr -e 1000 -c 0 -i 11 -a 0 -x {2.0 7.0 -1 ------- null}
r -t 0.1256 -s 2 -d 0 -p cbr -e 1000 -c 0 -i 9 -a 0 -x {2.0 7.0 8 ------- null}
+ -t 0.1256 -s 0 -d 7 -p cbr -e 1000 -c 0 -i 9 -a 0 -x {2.0 7.0 8 ------- null}
- -t 0.1256 -s 0 -d 7 -p cbr -e 1000 -c 0 -i 9 -a 0 -x {2.0 7.0 8 ------- null}
h -t 0.1256 -s 0 -d 7 -p cbr -e 1000 -c 0 -i 9 -a 0 -x {2.0 7.0 -1 ------- null}
r -t 0.1292 -s 0 -d 7 -p cbr -e 1000 -c 0 -i 8 -a 0 -x {2.0 7.0 7 ------- null}
+ -t 0.13 -s 2 -d 0 -p cbr -e 1000 -c 0 -i 12 -a 0 -x {2.0 7.0 10 ------- null}
- -t 0.13 -s 2 -d 0 -p cbr -e 1000 -c 0 -i 12 -a 0 -x {2.0 7.0 10 ------- null}
h -t 0.13 -s 2 -d 0 -p cbr -e 1000 -c 0 -i 12 -a 0 -x {2.0 7.0 -1 ------- null}
r -t 0.130192 -s 5 -d 0 -p ack -e 40 -c 0 -i 10 -a 0 -x {5.0 1.0 0 ------- null}
+ -t 0.130192 -s 0 -d 1 -p ack -e 40 -c 0 -i 10 -a 0 -x {5.0 1.0 0 ------- null}
- -t 0.130192 -s 0 -d 1 -p ack -e 40 -c 0 -i 10 -a 0 -x {5.0 1.0 0 ------- null}
h -t 0.130192 -s 0 -d 1 -p ack -e 40 -c 0 -i 10 -a 0 -x {5.0 1.0 -1 ------- null}
r -t 0.1336 -s 2 -d 0 -p cbr -e 1000 -c 0 -i 11 -a 0 -x {2.0 7.0 9 ------- null}
+ -t 0.1336 -s 0 -d 7 -p cbr -e 1000 -c 0 -i 11 -a 0 -x {2.0 7.0 9 ------- null}
- -t 0.1336 -s 0 -d 7 -p cbr -e 1000 -c 0 -i 11 -a 0 -x {2.0 7.0 9 ------- null}
h -t 0.1336 -s 0 -d 7 -p cbr -e 1000 -c 0 -i 11 -a 0 -x {2.0 7.0 -1 ------- null}
r -t 0.1372 -s 0 -d 7 -p cbr -e 1000 -c 0 -i 9 -a 0 -x {2.0 7.0 8 ------- null}
+ -t 0.138 -s 2 -d 0 -p cbr -e 1000 -c 0 -i 13 -a 0 -x {2.0 7.0 11 ------- null}
- -t 0.138 -s 2 -d 0 -p cbr -e 1000 -c 0 -i 13 -a 0 -x {2.0 7.0 11 ------- null}
h -t 0.138 -s 2 -d 0 -p cbr -e 1000 -c 0 -i 13 -a 0 -x {2.0 7.0 -1 ------- null}
r -t 0.140256 -s 0 -d 1 -p ack -e 40 -c 0 -i 10 -a 0 -x {5.0 1.0 0 ------- null}
+ -t 0.140256 -s 1 -d 0 -p tcp -e 1540 -c 0 -i 14 -a 0 -x {1.0 5.0 1 ------- null}
- -t 0.140256 -s 1 -d 0 -p tcp -e 1540 -c 0 -i 14 -a 0 -x {1.0 5.0 1 ------- null}
h -t 0.140256 -s 1 -d 0 -p tcp -e 1540 -c 0 -i 14 -a 0 -x {1.0 5.0 -1 ------- null}
+ -t 0.140256 -s 1 -d 0 -p tcp -e 1540 -c 0 -i 15 -a 0 -x {1.0 5.0 2 ------- null}
r -t 0.1416 -s 2 -d 0 -p cbr -e 1000 -c 0 -i 12 -a 0 -x {2.0 7.0 10 ------- null}
+ -t 0.1416 -s 0 -d 7 -p cbr -e 1000 -c 0 -i 12 -a 0 -x {2.0 7.0 10 ------- null}
- -t 0.1416 -s 0 -d 7 -p cbr -e 1000 -c 0 -i 12 -a 0 -x {2.0 7.0 10 ------- null}
h -t 0.1416 -s 0 -d 7 -p cbr -e 1000 -c 0 -i 12 -a 0 -x {2.0 7.0 -1 ------- null}
- -t 0.14272 -s 1 -d 0 -p tcp -e 1540 -c 0 -i 15 -a 0 -x {1.0 5.0 2 ------- null}
h -t 0.14272 -s 1 -d 0 -p tcp -e 1540 -c 0 -i 15 -a 0 -x {1.0 5.0 -1 ------- null}
r -t 0.1452 -s 0 -d 7 -p cbr -e 1000 -c 0 -i 11 -a 0 -x {2.0 7.0 9 ------- null}
+ -t 0.146 -s 2 -d 0 -p cbr -e 1000 -c 0 -i 16 -a 0 -x {2.0 7.0 12 ------- null}
- -t 0.146 -s 2 -d 0 -p cbr -e 1000 -c 0 -i 16 -a 0 -x {2.0 7.0 12 ------- null}
h -t 0.146 -s 2 -d 0 -p cbr -e 1000 -c 0 -i 16 -a 0 -x {2.0 7.0 -1 ------- null}
r -t 0.1496 -s 2 -d 0 -p cbr -e 1000 -c 0 -i 13 -a 0 -x {2.0 7.0 11 ------- null}
+ -t 0.1496 -s 0 -d 7 -p cbr -e 1000 -c 0 -i 13 -a 0 -x {2.0 7.0 11 ------- null}
- -t 0.1496 -s 0 -d 7 -p cbr -e 1000 -c 0 -i 13 -a 0 -x {2.0 7.0 11 ------- null}
h -t 0.1496 -s 0 -d 7 -p cbr -e 1000 -c 0 -i 13 -a 0 -x {2.0 7.0 -1 ------- null}
r -t 0.15272 -s 1 -d 0 -p tcp -e 1540 -c 0 -i 14 -a 0 -x {1.0 5.0 1 ------- null}
+ -t 0.15272 -s 0 -d 5 -p tcp -e 1540 -c 0 -i 14 -a 0 -x {1.0 5.0 1 ------- null}
- -t 0.15272 -s 0 -d 5 -p tcp -e 1540 -c 0 -i 14 -a 0 -x {1.0 5.0 1 ------- null}
h -t 0.15272 -s 0 -d 5 -p tcp -e 1540 -c 0 -i 14 -a 0 -x {1.0 5.0 -1 ------- null}
r -t 0.1532 -s 0 -d 7 -p cbr -e 1000 -c 0 -i 12 -a 0 -x {2.0 7.0 10 ------- null}
+ -t 0.154 -s 2 -d 0 -p cbr -e 1000 -c 0 -i 17 -a 0 -x {2.0 7.0 13 ------- null}
- -t 0.154 -s 2 -d 0 -p cbr -e 1000 -c 0 -i 17 -a 0 -x {2.0 7.0 13 ------- null}
h -t 0.154 -s 2 -d 0 -p cbr -e 1000 -c 0 -i 17 -a 0 -x {2.0 7.0 -1 ------- null}
r -t 0.155184 -s 1 -d 0 -p tcp -e 1540 -c 0 -i 15 -a 0 -x {1.0 5.0 2 ------- null}
+ -t 0.155184 -s 0 -d 5 -p tcp -e 1540 -c 0 -i 15 -a 0 -x {1.0 5.0 2 ------- null}
- -t 0.155184 -s 0 -d 5 -p tcp -e 1540 -c 0 -i 15 -a 0 -x {1.0 5.0 2 ------- null}
h -t 0.155184 -s 0 -d 5 -p tcp -e 1540 -c 0 -i 15 -a 0 -x {1.0 5.0 -1 ------- null}
r -t 0.1576 -s 2 -d 0 -p cbr -e 1000 -c 0 -i 16 -a 0 -x {2.0 7.0 12 ------- null}
+ -t 0.1576 -s 0 -d 7 -p cbr -e 1000 -c 0 -i 16 -a 0 -x {2.0 7.0 12 ------- null}
- -t 0.1576 -s 0 -d 7 -p cbr -e 1000 -c 0 -i 16 -a 0 -x {2.0 7.0 12 ------- null}
h -t 0.1576 -s 0 -d 7 -p cbr -e 1000 -c 0 -i 16 -a 0 -x {2.0 7.0 -1 ------- null}
r -t 0.1612 -s 0 -d 7 -p cbr -e 1000 -c 0 -i 13 -a 0 -x {2.0 7.0 11 ------- null}
+ -t 0.162 -s 2 -d 0 -p cbr -e 1000 -c 0 -i 18 -a 0 -x {2.0 7.0 14 ------- null}
- -t 0.162 -s 2 -d 0 -p cbr -e 1000 -c 0 -i 18 -a 0 -x {2.0 7.0 14 ------- null}
h -t 0.162 -s 2 -d 0 -p cbr -e 1000 -c 0 -i 18 -a 0 -x {2.0 7.0 -1 ------- null}
r -t 0.165184 -s 0 -d 5 -p tcp -e 1540 -c 0 -i 14 -a 0 -x {1.0 5.0 1 ------- null}
+ -t 0.165184 -s 5 -d 0 -p ack -e 40 -c 0 -i 19 -a 0 -x {5.0 1.0 1 ------- null}
- -t 0.165184 -s 5 -d 0 -p ack -e 40 -c 0 -i 19 -a 0 -x {5.0 1.0 1 ------- null}
h -t 0.165184 -s 5 -d 0 -p ack -e 40 -c 0 -i 19 -a 0 -x {5.0 1.0 -1 ------- null}
r -t 0.1656 -s 2 -d 0 -p cbr -e 1000 -c 0 -i 17 -a 0 -x {2.0 7.0 13 ------- null}
+ -t 0.1656 -s 0 -d 7 -p cbr -e 1000 -c 0 -i 17 -a 0 -x {2.0 7.0 13 ------- null}
- -t 0.1656 -s 0 -d 7 -p cbr -e 1000 -c 0 -i 17 -a 0 -x {2.0 7.0 13 ------- null}
h -t 0.1656 -s 0 -d 7 -p cbr -e 1000 -c 0 -i 17 -a 0 -x {2.0 7.0 -1 ------- null}
r -t 0.167648 -s 0 -d 5 -p tcp -e 1540 -c 0 -i 15 -a 0 -x {1.0 5.0 2 ------- null}
+ -t 0.167648 -s 5 -d 0 -p ack -e 40 -c 0 -i 20 -a 0 -x {5.0 1.0 2 ------- null}
- -t 0.167648 -s 5 -d 0 -p ack -e 40 -c 0 -i 20 -a 0 -x {5.0 1.0 2 ------- null}
h -t 0.167648 -s 5 -d 0 -p ack -e 40 -c 0 -i 20 -a 0 -x {5.0 1.0 -1 ------- null}
r -t 0.1692 -s 0 -d 7 -p cbr -e 1000 -c 0 -i 16 -a 0 -x {2.0 7.0 12 ------- null}
+ -t 0.17 -s 2 -d 0 -p cbr -e 1000 -c 0 -i 21 -a 0 -x {2.0 7.0 15 ------- null}
- -t 0.17 -s 2 -d 0 -p cbr -e 1000 -c 0 -i 21 -a 0 -x {2.0 7.0 15 ------- null}
h -t 0.17 -s 2 -d 0 -p cbr -e 1000 -c 0 -i 21 -a 0 -x {2.0 7.0 -1 ------- null}
r -t 0.1736 -s 2 -d 0 -p cbr -e 1000 -c 0 -i 18 -a 0 -x {2.0 7.0 14 ------- null}
+ -t 0.1736 -s 0 -d 7 -p cbr -e 1000 -c 0 -i 18 -a 0 -x {2.0 7.0 14 ------- null}
- -t 0.1736 -s 0 -d 7 -p cbr -e 1000 -c 0 -i 18 -a 0 -x {2.0 7.0 14 ------- null}
h -t 0.1736 -s 0 -d 7 -p cbr -e 1000 -c 0 -i 18 -a 0 -x {2.0 7.0 -1 ------- null}
r -t 0.175248 -s 5 -d 0 -p ack -e 40 -c 0 -i 19 -a 0 -x {5.0 1.0 1 ------- null}
+ -t 0.175248 -s 0 -d 1 -p ack -e 40 -c 0 -i 19 -a 0 -x {5.0 1.0 1 ------- null}
- -t 0.175248 -s 0 -d 1 -p ack -e 40 -c 0 -i 19 -a 0 -x {5.0 1.0 1 ------- null}
h -t 0.175248 -s 0 -d 1 -p ack -e 40 -c 0 -i 19 -a 0 -x {5.0 1.0 -1 ------- null}
r -t 0.1772 -s 0 -d 7 -p cbr -e 1000 -c 0 -i 17 -a 0 -x {2.0 7.0 13 ------- null}
r -t 0.177712 -s 5 -d 0 -p ack -e 40 -c 0 -i 20 -a 0 -x {5.0 1.0 2 ------- null}
+ -t 0.177712 -s 0 -d 1 -p ack -e 40 -c 0 -i 20 -a 0 -x {5.0 1.0 2 ------- null}
- -t 0.177712 -s 0 -d 1 -p ack -e 40 -c 0 -i 20 -a 0 -x {5.0 1.0 2 ------- null}
h -t 0.177712 -s 0 -d 1 -p ack -e 40 -c 0 -i 20 -a 0 -x {5.0 1.0 -1 ------- null}
+ -t 0.178 -s 2 -d 0 -p cbr -e 1000 -c 0 -i 22 -a 0 -x {2.0 7.0 16 ------- null}
- -t 0.178 -s 2 -d 0 -p cbr -e 1000 -c 0 -i 22 -a 0 -x {2.0 7.0 16 ------- null}
h -t 0.178 -s 2 -d 0 -p cbr -e 1000 -c 0 -i 22 -a 0 -x {2.0 7.0 -1 ------- null}
r -t 0.1816 -s 2 -d 0 -p cbr -e 1000 -c 0 -i 21 -a 0 -x {2.0 7.0 15 ------- null}
+ -t 0.1816 -s 0 -d 7 -p cbr -e 1000 -c 0 -i 21 -a 0 -x {2.0 7.0 15 ------- null}
- -t 0.1816 -s 0 -d 7 -p cbr -e 1000 -c 0 -i 21 -a 0 -x {2.0 7.0 15 ------- null}
h -t 0.1816 -s 0 -d 7 -p cbr -e 1000 -c 0 -i 21 -a 0 -x {2.0 7.0 -1 ------- null}
r -t 0.1852 -s 0 -d 7 -p cbr -e 1000 -c 0 -i 18 -a 0 -x {2.0 7.0 14 ------- null}
r -t 0.185312 -s 0 -d 1 -p ack -e 40 -c 0 -i 19 -a 0 -x {5.0 1.0 1 ------- null}
+ -t 0.185312 -s 1 -d 0 -p tcp -e 1540 -c 0 -i 23 -a 0 -x {1.0 5.0 3 ------- null}
- -t 0.185312 -s 1 -d 0 -p tcp -e 1540 -c 0 -i 23 -a 0 -x {1.0 5.0 3 ------- null}
h -t 0.185312 -s 1 -d 0 -p tcp -e 1540 -c 0 -i 23 -a 0 -x {1.0 5.0 -1 ------- null}
+ -t 0.185312 -s 1 -d 0 -p tcp -e 1540 -c 0 -i 24 -a 0 -x {1.0 5.0 4 ------- null}
+ -t 0.186 -s 2 -d 0 -p cbr -e 1000 -c 0 -i 25 -a 0 -x {2.0 7.0 17 ------- null}
- -t 0.186 -s 2 -d 0 -p cbr -e 1000 -c 0 -i 25 -a 0 -x {2.0 7.0 17 ------- null}
h -t 0.186 -s 2 -d 0 -p cbr -e 1000 -c 0 -i 25 -a 0 -x {2.0 7.0 -1 ------- null}
r -t 0.187776 -s 0 -d 1 -p ack -e 40 -c 0 -i 20 -a 0 -x {5.0 1.0 2 ------- null}
+ -t 0.187776 -s 1 -d 0 -p tcp -e 1540 -c 0 -i 26 -a 0 -x {1.0 5.0 5 ------- null}
+ -t 0.187776 -s 1 -d 0 -p tcp -e 1540 -c 0 -i 27 -a 0 -x {1.0 5.0 6 ------- null}
- -t 0.187776 -s 1 -d 0 -p tcp -e 1540 -c 0 -i 24 -a 0 -x {1.0 5.0 4 ------- null}
h -t 0.187776 -s 1 -d 0 -p tcp -e 1540 -c 0 -i 24 -a 0 -x {1.0 5.0 -1 ------- null}
r -t 0.1896 -s 2 -d 0 -p cbr -e 1000 -c 0 -i 22 -a 0 -x {2.0 7.0 16 ------- null}
+ -t 0.1896 -s 0 -d 7 -p cbr -e 1000 -c 0 -i 22 -a 0 -x {2.0 7.0 16 ------- null}
- -t 0.1896 -s 0 -d 7 -p cbr -e 1000 -c 0 -i 22 -a 0 -x {2.0 7.0 16 ------- null}
h -t 0.1896 -s 0 -d 7 -p cbr -e 1000 -c 0 -i 22 -a 0 -x {2.0 7.0 -1 ------- null}
- -t 0.19024 -s 1 -d 0 -p tcp -e 1540 -c 0 -i 26 -a 0 -x {1.0 5.0 5 ------- null}
h -t 0.19024 -s 1 -d 0 -p tcp -e 1540 -c 0 -i 26 -a 0 -x {1.0 5.0 -1 ------- null}
- -t 0.192704 -s 1 -d 0 -p tcp -e 1540 -c 0 -i 27 -a 0 -x {1.0 5.0 6 ------- null}
h -t 0.192704 -s 1 -d 0 -p tcp -e 1540 -c 0 -i 27 -a 0 -x {1.0 5.0 -1 ------- null}
r -t 0.1932 -s 0 -d 7 -p cbr -e 1000 -c 0 -i 21 -a 0 -x {2.0 7.0 15 ------- null}
+ -t 0.194 -s 2 -d 0 -p cbr -e 1000 -c 0 -i 28 -a 0 -x {2.0 7.0 18 ------- null}
- -t 0.194 -s 2 -d 0 -p cbr -e 1000 -c 0 -i 28 -a 0 -x {2.0 7.0 18 ------- null}
h -t 0.194 -s 2 -d 0 -p cbr -e 1000 -c 0 -i 28 -a 0 -x {2.0 7.0 -1 ------- null}
r -t 0.1976 -s 2 -d 0 -p cbr -e 1000 -c 0 -i 25 -a 0 -x {2.0 7.0 17 ------- null}
+ -t 0.1976 -s 0 -d 7 -p cbr -e 1000 -c 0 -i 25 -a 0 -x {2.0 7.0 17 ------- null}
- -t 0.1976 -s 0 -d 7 -p cbr -e 1000 -c 0 -i 25 -a 0 -x {2.0 7.0 17 ------- null}
h -t 0.1976 -s 0 -d 7 -p cbr -e 1000 -c 0 -i 25 -a 0 -x {2.0 7.0 -1 ------- null}
r -t 0.197776 -s 1 -d 0 -p tcp -e 1540 -c 0 -i 23 -a 0 -x {1.0 5.0 3 ------- null}
+ -t 0.197776 -s 0 -d 5 -p tcp -e 1540 -c 0 -i 23 -a 0 -x {1.0 5.0 3 ------- null}
- -t 0.197776 -s 0 -d 5 -p tcp -e 1540 -c 0 -i 23 -a 0 -x {1.0 5.0 3 ------- null}
h -t 0.197776 -s 0 -d 5 -p tcp -e 1540 -c 0 -i 23 -a 0 -x {1.0 5.0 -1 ------- null}
r -t 0.20024 -s 1 -d 0 -p tcp -e 1540 -c 0 -i 24 -a 0 -x {1.0 5.0 4 ------- null}
+ -t 0.20024 -s 0 -d 5 -p tcp -e 1540 -c 0 -i 24 -a 0 -x {1.0 5.0 4 ------- null}
- -t 0.20024 -s 0 -d 5 -p tcp -e 1540 -c 0 -i 24 -a 0 -x {1.0 5.0 4 ------- null}
h -t 0.20024 -s 0 -d 5 -p tcp -e 1540 -c 0 -i 24 -a 0 -x {1.0 5.0 -1 ------- null}
r -t 0.2012 -s 0 -d 7 -p cbr -e 1000 -c 0 -i 22 -a 0 -x {2.0 7.0 16 ------- null}
+ -t 0.202 -s 2 -d 0 -p cbr -e 1000 -c 0 -i 29 -a 0 -x {2.0 7.0 19 ------- null}
- -t 0.202 -s 2 -d 0 -p cbr -e 1000 -c 0 -i 29 -a 0 -x {2.0 7.0 19 ------- null}
h -t 0.202 -s 2 -d 0 -p cbr -e 1000 -c 0 -i 29 -a 0 -x {2.0 7.0 -1 ------- null}
r -t 0.202704 -s 1 -d 0 -p tcp -e 1540 -c 0 -i 26 -a 0 -x {1.0 5.0 5 ------- null}
+ -t 0.202704 -s 0 -d 5 -p tcp -e 1540 -c 0 -i 26 -a 0 -x {1.0 5.0 5 ------- null}
- -t 0.202704 -s 0 -d 5 -p tcp -e 1540 -c 0 -i 26 -a 0 -x {1.0 5.0 5 ------- null}
h -t 0.202704 -s 0 -d 5 -p tcp -e 1540 -c 0 -i 26 -a 0 -x {1.0 5.0 -1 ------- null}
r -t 0.205168 -s 1 -d 0 -p tcp -e 1540 -c 0 -i 27 -a 0 -x {1.0 5.0 6 ------- null}
+ -t 0.205168 -s 0 -d 5 -p tcp -e 1540 -c 0 -i 27 -a 0 -x {1.0 5.0 6 ------- null}
- -t 0.205168 -s 0 -d 5 -p tcp -e 1540 -c 0 -i 27 -a 0 -x {1.0 5.0 6 ------- null}
h -t 0.205168 -s 0 -d 5 -p tcp -e 1540 -c 0 -i 27 -a 0 -x {1.0 5.0 -1 ------- null}
r -t 0.2056 -s 2 -d 0 -p cbr -e 1000 -c 0 -i 28 -a 0 -x {2.0 7.0 18 ------- null}
+ -t 0.2056 -s 0 -d 7 -p cbr -e 1000 -c 0 -i 28 -a 0 -x {2.0 7.0 18 ------- null}
- -t 0.2056 -s 0 -d 7 -p cbr -e 1000 -c 0 -i 28 -a 0 -x {2.0 7.0 18 ------- null}
h -t 0.2056 -s 0 -d 7 -p cbr -e 1000 -c 0 -i 28 -a 0 -x {2.0 7.0 -1 ------- null}
r -t 0.2092 -s 0 -d 7 -p cbr -e 1000 -c 0 -i 25 -a 0 -x {2.0 7.0 17 ------- null}
+ -t 0.21 -s 2 -d 0 -p cbr -e 1000 -c 0 -i 30 -a 0 -x {2.0 7.0 20 ------- null}
- -t 0.21 -s 2 -d 0 -p cbr -e 1000 -c 0 -i 30 -a 0 -x {2.0 7.0 20 ------- null}
h -t 0.21 -s 2 -d 0 -p cbr -e 1000 -c 0 -i 30 -a 0 -x {2.0 7.0 -1 ------- null}
r -t 0.21024 -s 0 -d 5 -p tcp -e 1540 -c 0 -i 23 -a 0 -x {1.0 5.0 3 ------- null}
+ -t 0.21024 -s 5 -d 0 -p ack -e 40 -c 0 -i 31 -a 0 -x {5.0 1.0 3 ------- null}
- -t 0.21024 -s 5 -d 0 -p ack -e 40 -c 0 -i 31 -a 0 -x {5.0 1.0 3 ------- null}
h -t 0.21024 -s 5 -d 0 -p ack -e 40 -c 0 -i 31 -a 0 -x {5.0 1.0 -1 ------- null}
r -t 0.212704 -s 0 -d 5 -p tcp -e 1540 -c 0 -i 24 -a 0 -x {1.0 5.0 4 ------- null}
+ -t 0.212704 -s 5 -d 0 -p ack -e 40 -c 0 -i 32 -a 0 -x {5.0 1.0 4 ------- null}
- -t 0.212704 -s 5 -d 0 -p ack -e 40 -c 0 -i 32 -a 0 -x {5.0 1.0 4 ------- null}
h -t 0.212704 -s 5 -d 0 -p ack -e 40 -c 0 -i 32 -a 0 -x {5.0 1.0 -1 ------- null}
r -t 0.2136 -s 2 -d 0 -p cbr -e 1000 -c 0 -i 29 -a 0 -x {2.0 7.0 19 ------- null}
+ -t 0.2136 -s 0 -d 7 -p cbr -e 1000 -c 0 -i 29 -a 0 -x {2.0 7.0 19 ------- null}
- -t 0.2136 -s 0 -d 7 -p cbr -e 1000 -c 0 -i 29 -a 0 -x {2.0 7.0 19 ------- null}
h -t 0.2136 -s 0 -d 7 -p cbr -e 1000 -c 0 -i 29 -a 0 -x {2.0 7.0 -1 ------- null}
r -t 0.215168 -s 0 -d 5 -p tcp -e 1540 -c 0 -i 26 -a 0 -x {1.0 5.0 5 ------- null}
+ -t 0.215168 -s 5 -d 0 -p ack -e 40 -c 0 -i 33 -a 0 -x {5.0 1.0 5 ------- null}
- -t 0.215168 -s 5 -d 0 -p ack -e 40 -c 0 -i 33 -a 0 -x {5.0 1.0 5 ------- null}
h -t 0.215168 -s 5 -d 0 -p ack -e 40 -c 0 -i 33 -a 0 -x {5.0 1.0 -1 ------- null}
r -t 0.2172 -s 0 -d 7 -p cbr -e 1000 -c 0 -i 28 -a 0 -x {2.0 7.0 18 ------- null}
r -t 0.217632 -s 0 -d 5 -p tcp -e 1540 -c 0 -i 27 -a 0 -x {1.0 5.0 6 ------- null}
+ -t 0.217632 -s 5 -d 0 -p ack -e 40 -c 0 -i 34 -a 0 -x {5.0 1.0 6 ------- null}
- -t 0.217632 -s 5 -d 0 -p ack -e 40 -c 0 -i 34 -a 0 -x {5.0 1.0 6 ------- null}
h -t 0.217632 -s 5 -d 0 -p ack -e 40 -c 0 -i 34 -a 0 -x {5.0 1.0 -1 ------- null}
+ -t 0.218 -s 2 -d 0 -p cbr -e 1000 -c 0 -i 35 -a 0 -x {2.0 7.0 21 ------- null}
- -t 0.218 -s 2 -d 0 -p cbr -e 1000 -c 0 -i 35 -a 0 -x {2.0 7.0 21 ------- null}
h -t 0.218 -s 2 -d 0 -p cbr -e 1000 -c 0 -i 35 -a 0 -x {2.0 7.0 -1 ------- null}
r -t 0.220304 -s 5 -d 0 -p ack -e 40 -c 0 -i 31 -a 0 -x {5.0 1.0 3 ------- null}
+ -t 0.220304 -s 0 -d 1 -p ack -e 40 -c 0 -i 31 -a 0 -x {5.0 1.0 3 ------- null}
- -t 0.220304 -s 0 -d 1 -p ack -e 40 -c 0 -i 31 -a 0 -x {5.0 1.0 3 ------- null}
h -t 0.220304 -s 0 -d 1 -p ack -e 40 -c 0 -i 31 -a 0 -x {5.0 1.0 -1 ------- null}
r -t 0.2216 -s 2 -d 0 -p cbr -e 1000 -c 0 -i 30 -a 0 -x {2.0 7.0 20 ------- null}
+ -t 0.2216 -s 0 -d 7 -p cbr -e 1000 -c 0 -i 30 -a 0 -x {2.0 7.0 20 ------- null}
- -t 0.2216 -s 0 -d 7 -p cbr -e 1000 -c 0 -i 30 -a 0 -x {2.0 7.0 20 ------- null}
h -t 0.2216 -s 0 -d 7 -p cbr -e 1000 -c 0 -i 30 -a 0 -x {2.0 7.0 -1 ------- null}
r -t 0.222768 -s 5 -d 0 -p ack -e 40 -c 0 -i 32 -a 0 -x {5.0 1.0 4 ------- null}
+ -t 0.222768 -s 0 -d 1 -p ack -e 40 -c 0 -i 32 -a 0 -x {5.0 1.0 4 ------- null}
- -t 0.222768 -s 0 -d 1 -p ack -e 40 -c 0 -i 32 -a 0 -x {5.0 1.0 4 ------- null}
h -t 0.222768 -s 0 -d 1 -p ack -e 40 -c 0 -i 32 -a 0 -x {5.0 1.0 -1 ------- null}
r -t 0.2252 -s 0 -d 7 -p cbr -e 1000 -c 0 -i 29 -a 0 -x {2.0 7.0 19 ------- null}
r -t 0.225232 -s 5 -d 0 -p ack -e 40 -c 0 -i 33 -a 0 -x {5.0 1.0 5 ------- null}
+ -t 0.225232 -s 0 -d 1 -p ack -e 40 -c 0 -i 33 -a 0 -x {5.0 1.0 5 ------- null}
- -t 0.225232 -s 0 -d 1 -p ack -e 40 -c 0 -i 33 -a 0 -x {5.0 1.0 5 ------- null}
h -t 0.225232 -s 0 -d 1 -p ack -e 40 -c 0 -i 33 -a 0 -x {5.0 1.0 -1 ------- null}
+ -t 0.226 -s 2 -d 0 -p cbr -e 1000 -c 0 -i 36 -a 0 -x {2.0 7.0 22 ------- null}
- -t 0.226 -s 2 -d 0 -p cbr -e 1000 -c 0 -i 36 -a 0 -x {2.0 7.0 22 ------- null}
h -t 0.226 -s 2 -d 0 -p cbr -e 1000 -c 0 -i 36 -a 0 -x {2.0 7.0 -1 ------- null}
r -t 0.227696 -s 5 -d 0 -p ack -e 40 -c 0 -i 34 -a 0 -x {5.0 1.0 6 ------- null}
+ -t 0.227696 -s 0 -d 1 -p ack -e 40 -c 0 -i 34 -a 0 -x {5.0 1.0 6 ------- null}
- -t 0.227696 -s 0 -d 1 -p ack -e 40 -c 0 -i 34 -a 0 -x {5.0 1.0 6 ------- null}
h -t 0.227696 -s 0 -d 1 -p ack -e 40 -c 0 -i 34 -a 0 -x {5.0 1.0 -1 ------- null}
r -t 0.2296 -s 2 -d 0 -p cbr -e 1000 -c 0 -i 35 -a 0 -x {2.0 7.0 21 ------- null}
+ -t 0.2296 -s 0 -d 7 -p cbr -e 1000 -c 0 -i 35 -a 0 -x {2.0 7.0 21 ------- null}
- -t 0.2296 -s 0 -d 7 -p cbr -e 1000 -c 0 -i 35 -a 0 -x {2.0 7.0 21 ------- null}
h -t 0.2296 -s 0 -d 7 -p cbr -e 1000 -c 0 -i 35 -a 0 -x {2.0 7.0 -1 ------- null}
r -t 0.230368 -s 0 -d 1 -p ack -e 40 -c 0 -i 31 -a 0 -x {5.0 1.0 3 ------- null}
+ -t 0.230368 -s 1 -d 0 -p tcp -e 1540 -c 0 -i 37 -a 0 -x {1.0 5.0 7 ------- null}
- -t 0.230368 -s 1 -d 0 -p tcp -e 1540 -c 0 -i 37 -a 0 -x {1.0 5.0 7 ------- null}
h -t 0.230368 -s 1 -d 0 -p tcp -e 1540 -c 0 -i 37 -a 0 -x {1.0 5.0 -1 ------- null}
+ -t 0.230368 -s 1 -d 0 -p tcp -e 1540 -c 0 -i 38 -a 0 -x {1.0 5.0 8 ------- null}
r -t 0.232832 -s 0 -d 1 -p ack -e 40 -c 0 -i 32 -a 0 -x {5.0 1.0 4 ------- null}
+ -t 0.232832 -s 1 -d 0 -p tcp -e 1540 -c 0 -i 39 -a 0 -x {1.0 5.0 9 ------- null}
+ -t 0.232832 -s 1 -d 0 -p tcp -e 1540 -c 0 -i 40 -a 0 -x {1.0 5.0 10 ------- null}
- -t 0.232832 -s 1 -d 0 -p tcp -e 1540 -c 0 -i 38 -a 0 -x {1.0 5.0 8 ------- null}
h -t 0.232832 -s 1 -d 0 -p tcp -e 1540 -c 0 -i 38 -a 0 -x {1.0 5.0 -1 ------- null}
r -t 0.2332 -s 0 -d 7 -p cbr -e 1000 -c 0 -i 30 -a 0 -x {2.0 7.0 20 ------- null}
+ -t 0.234 -s 2 -d 0 -p cbr -e 1000 -c 0 -i 41 -a 0 -x {2.0 7.0 23 ------- null}
- -t 0.234 -s 2 -d 0 -p cbr -e 1000 -c 0 -i 41 -a 0 -x {2.0 7.0 23 ------- null}
h -t 0.234 -s 2 -d 0 -p cbr -e 1000 -c 0 -i 41 -a 0 -x {2.0 7.0 -1 ------- null}
r -t 0.235296 -s 0 -d 1 -p ack -e 40 -c 0 -i 33 -a 0 -x {5.0 1.0 5 ------- null}
+ -t 0.235296 -s 1 -d 0 -p tcp -e 1540 -c 0 -i 42 -a 0 -x {1.0 5.0 11 ------- null}
+ -t 0.235296 -s 1 -d 0 -p tcp -e 1540 -c 0 -i 43 -a 0 -x {1.0 5.0 12 ------- null}
- -t 0.235296 -s 1 -d 0 -p tcp -e 1540 -c 0 -i 39 -a 0 -x {1.0 5.0 9 ------- null}
h -t 0.235296 -s 1 -d 0 -p tcp -e 1540 -c 0 -i 39 -a 0 -x {1.0 5.0 -1 ------- null}
r -t 0.2376 -s 2 -d 0 -p cbr -e 1000 -c 0 -i 36 -a 0 -x {2.0 7.0 22 ------- null}
+ -t 0.2376 -s 0 -d 7 -p cbr -e 1000 -c 0 -i 36 -a 0 -x {2.0 7.0 22 ------- null}
- -t 0.2376 -s 0 -d 7 -p cbr -e 1000 -c 0 -i 36 -a 0 -x {2.0 7.0 22 ------- null}
h -t 0.2376 -s 0 -d 7 -p cbr -e 1000 -c 0 -i 36 -a 0 -x {2.0 7.0 -1 ------- null}
r -t 0.23776 -s 0 -d 1 -p ack -e 40 -c 0 -i 34 -a 0 -x {5.0 1.0 6 ------- null}
+ -t 0.23776 -s 1 -d 0 -p tcp -e 1540 -c 0 -i 44 -a 0 -x {1.0 5.0 13 ------- null}
+ -t 0.23776 -s 1 -d 0 -p tcp -e 1540 -c 0 -i 45 -a 0 -x {1.0 5.0 14 ------- null}
- -t 0.23776 -s 1 -d 0 -p tcp -e 1540 -c 0 -i 40 -a 0 -x {1.0 5.0 10 ------- null}
h -t 0.23776 -s 1 -d 0 -p tcp -e 1540 -c 0 -i 40 -a 0 -x {1.0 5.0 -1 ------- null}
- -t 0.240224 -s 1 -d 0 -p tcp -e 1540 -c 0 -i 42 -a 0 -x {1.0 5.0 11 ------- null}
h -t 0.240224 -s 1 -d 0 -p tcp -e 1540 -c 0 -i 42 -a 0 -x {1.0 5.0 -1 ------- null}
r -t 0.2412 -s 0 -d 7 -p cbr -e 1000 -c 0 -i 35 -a 0 -x {2.0 7.0 21 ------- null}
+ -t 0.242 -s 2 -d 0 -p cbr -e 1000 -c 0 -i 46 -a 0 -x {2.0 7.0 24 ------- null}
- -t 0.242 -s 2 -d 0 -p cbr -e 1000 -c 0 -i 46 -a 0 -x {2.0 7.0 24 ------- null}
h -t 0.242 -s 2 -d 0 -p cbr -e 1000 -c 0 -i 46 -a 0 -x {2.0 7.0 -1 ------- null}
- -t 0.242688 -s 1 -d 0 -p tcp -e 1540 -c 0 -i 43 -a 0 -x {1.0 5.0 12 ------- null}
h -t 0.242688 -s 1 -d 0 -p tcp -e 1540 -c 0 -i 43 -a 0 -x {1.0 5.0 -1 ------- null}
r -t 0.242832 -s 1 -d 0 -p tcp -e 1540 -c 0 -i 37 -a 0 -x {1.0 5.0 7 ------- null}
+ -t 0.242832 -s 0 -d 5 -p tcp -e 1540 -c 0 -i 37 -a 0 -x {1.0 5.0 7 ------- null}
- -t 0.242832 -s 0 -d 5 -p tcp -e 1540 -c 0 -i 37 -a 0 -x {1.0 5.0 7 ------- null}
h -t 0.242832 -s 0 -d 5 -p tcp -e 1540 -c 0 -i 37 -a 0 -x {1.0 5.0 -1 ------- null}
- -t 0.245152 -s 1 -d 0 -p tcp -e 1540 -c 0 -i 44 -a 0 -x {1.0 5.0 13 ------- null}
h -t 0.245152 -s 1 -d 0 -p tcp -e 1540 -c 0 -i 44 -a 0 -x {1.0 5.0 -1 ------- null}
r -t 0.245296 -s 1 -d 0 -p tcp -e 1540 -c 0 -i 38 -a 0 -x {1.0 5.0 8 ------- null}
+ -t 0.245296 -s 0 -d 5 -p tcp -e 1540 -c 0 -i 38 -a 0 -x {1.0 5.0 8 ------- null}
- -t 0.245296 -s 0 -d 5 -p tcp -e 1540 -c 0 -i 38 -a 0 -x {1.0 5.0 8 ------- null}
h -t 0.245296 -s 0 -d 5 -p tcp -e 1540 -c 0 -i 38 -a 0 -x {1.0 5.0 -1 ------- null}
r -t 0.2456 -s 2 -d 0 -p cbr -e 1000 -c 0 -i 41 -a 0 -x {2.0 7.0 23 ------- null}
+ -t 0.2456 -s 0 -d 7 -p cbr -e 1000 -c 0 -i 41 -a 0 -x {2.0 7.0 23 ------- null}
- -t 0.2456 -s 0 -d 7 -p cbr -e 1000 -c 0 -i 41 -a 0 -x {2.0 7.0 23 ------- null}
h -t 0.2456 -s 0 -d 7 -p cbr -e 1000 -c 0 -i 41 -a 0 -x {2.0 7.0 -1 ------- null}
- -t 0.247616 -s 1 -d 0 -p tcp -e 1540 -c 0 -i 45 -a 0 -x {1.0 5.0 14 ------- null}
h -t 0.247616 -s 1 -d 0 -p tcp -e 1540 -c 0 -i 45 -a 0 -x {1.0 5.0 -1 ------- null}
r -t 0.24776 -s 1 -d 0 -p tcp -e 1540 -c 0 -i 39 -a 0 -x {1.0 5.0 9 ------- null}
+ -t 0.24776 -s 0 -d 5 -p tcp -e 1540 -c 0 -i 39 -a 0 -x {1.0 5.0 9 ------- null}
- -t 0.24776 -s 0 -d 5 -p tcp -e 1540 -c 0 -i 39 -a 0 -x {1.0 5.0 9 ------- null}
h -t 0.24776 -s 0 -d 5 -p tcp -e 1540 -c 0 -i 39 -a 0 -x {1.0 5.0 -1 ------- null}
r -t 0.2492 -s 0 -d 7 -p cbr -e 1000 -c 0 -i 36 -a 0 -x {2.0 7.0 22 ------- null}
+ -t 0.25 -s 2 -d 0 -p cbr -e 1000 -c 0 -i 47 -a 0 -x {2.0 7.0 25 ------- null}
- -t 0.25 -s 2 -d 0 -p cbr -e 1000 -c 0 -i 47 -a 0 -x {2.0 7.0 25 ------- null}
h -t 0.25 -s 2 -d 0 -p cbr -e 1000 -c 0 -i 47 -a 0 -x {2.0 7.0 -1 ------- null}
r -t 0.250224 -s 1 -d 0 -p tcp -e 1540 -c 0 -i 40 -a 0 -x {1.0 5.0 10 ------- null}
+ -t 0.250224 -s 0 -d 5 -p tcp -e 1540 -c 0 -i 40 -a 0 -x {1.0 5.0 10 ------- null}
- -t 0.250224 -s 0 -d 5 -p tcp -e 1540 -c 0 -i 40 -a 0 -x {1.0 5.0 10 ------- null}
h -t 0.250224 -s 0 -d 5 -p tcp -e 1540 -c 0 -i 40 -a 0 -x {1.0 5.0 -1 ------- null}
r -t 0.252688 -s 1 -d 0 -p tcp -e 1540 -c 0 -i 42 -a 0 -x {1.0 5.0 11 ------- null}
+ -t 0.252688 -s 0 -d 5 -p tcp -e 1540 -c 0 -i 42 -a 0 -x {1.0 5.0 11 ------- null}
- -t 0.252688 -s 0 -d 5 -p tcp -e 1540 -c 0 -i 42 -a 0 -x {1.0 5.0 11 ------- null}
h -t 0.252688 -s 0 -d 5 -p tcp -e 1540 -c 0 -i 42 -a 0 -x {1.0 5.0 -1 ------- null}
r -t 0.2536 -s 2 -d 0 -p cbr -e 1000 -c 0 -i 46 -a 0 -x {2.0 7.0 24 ------- null}
+ -t 0.2536 -s 0 -d 7 -p cbr -e 1000 -c 0 -i 46 -a 0 -x {2.0 7.0 24 ------- null}
- -t 0.2536 -s 0 -d 7 -p cbr -e 1000 -c 0 -i 46 -a 0 -x {2.0 7.0 24 ------- null}