+ 0.05 2 0 cbr 1000 ------- 0 2.0 7.0 0 0
- 0.05 2 0 cbr 1000 ------- 0 2.0 7.0 0 0
+ 0.058 2 0 cbr 1000 ------- 0 2.0 7.0 1 1
- 0.058 2 0 cbr 1000 ------- 0 2.0 7.0 1 1
r 0.0616 2 0 cbr 1000 ------- 0 2.0 7.0 0 0
+ 0.0616 0 7 cbr 1000 ------- 0 2.0 7.0 0 0
- 0.0616 0 7 cbr 1000 ------- 0 2.0 7.0 0 0
+ 0.066 2 0 cbr 1000 ------- 0 2.0 7.0 2 2
- 0.066 2 0 cbr 1000 ------- 0 2.0 7.0 2 2
r 0.0696 2 0 cbr 1000 ------- 0 2.0 7.0 1 1
+ 0.0696 0 7 cbr 1000 ------- 0 2.0 7.0 1 1
- 0.0696 0 7 cbr 1000 ------- 0 2.0 7.0 1 1
r 0.0732 0 7 cbr 1000 ------- 0 2.0 7.0 0 0
+ 0.074 2 0 cbr 1000 ------- 0 2.0 7.0 3 3
- 0.074 2 0 cbr 1000 ------- 0 2.0 7.0 3 3
r 0.0776 2 0 cbr 1000 ------- 0 2.0 7.0 2 2
+ 0.0776 0 7 cbr 1000 ------- 0 2.0 7.0 2 2
- 0.0776 0 7 cbr 1000 ------- 0 2.0 7.0 2 2
r 0.0812 0 7 cbr 1000 ------- 0 2.0 7.0 1 1
+ 0.082 2 0 cbr 1000 ------- 0 2.0 7.0 4 4
- 0.082 2 0 cbr 1000 ------- 0 2.0 7.0 4 4
r 0.0856 2 0 cbr 1000 ------- 0 2.0 7.0 3 3
+ 0.0856 0 7 cbr 1000 ------- 0 2.0 7.0 3 3
- 0.0856 0 7 cbr 1000 ------- 0 2.0 7.0 3 3
r 0.0892 0 7 cbr 1000 ------- 0 2.0 7.0 2 2
+ 0.09 2 0 cbr 1000 ------- 0 2.0 7.0 5 5
- 0.09 2 0 cbr 1000 ------- 0 2.0 7.0 5 5
r 0.0936 2 0 cbr 1000 ------- 0 2.0 7.0 4 4
+ 0.0936 0 7 cbr 1000 ------- 0 2.0 7.0 4 4
- 0.0936 0 7 cbr 1000 ------- 0 2.0 7.0 4 4
r 0.0972 0 7 cbr 1000 ------- 0 2.0 7.0 3 3
+ 0.098 2 0 cbr 1000 ------- 0 2.0 7.0 6 6
- 0.098 2 0 cbr 1000 ------- 0 2.0 7.0 6 6
+ 0.1 1 0 tcp 40 ------- 0 1.0 5.0 0 7
- 0.1 1 0 tcp 40 ------- 0 1.0 5.0 0 7
r 0.1016 2 0 cbr 1000 ------- 0 2.0 7.0 5 5
+ 0.1016 0 7 cbr 1000 ------- 0 2.0 7.0 5 5
- 0.1016 0 7 cbr 1000 ------- 0 2.0 7.0 5 5
r 0.1052 0 7 cbr 1000 ------- 0 2.0 7.0 4 4
+ 0.106 2 0 cbr 1000 ------- 0 2.0 7.0 7 8
- 0.106 2 0 cbr 1000 ------- 0 2.0 7.0 7 8
r 0.1096 2 0 cbr 1000 ------- 0 2.0 7.0 6 6
+ 0.1096 0 7 cbr 1000 ------- 0 2.0 7.0 6 6
- 0.1096 0 7 cbr 1000 ------- 0 2.0 7.0 6 6
r 0.110064 1 0 tcp 40 ------- 0 1.0 5.0 0 7
+ 0.110064 0 5 tcp 40 ------- 0 1.0 5.0 0 7
- 0.110064 0 5 tcp 40 ------- 0 1.0 5.0 0 7
r 0.1132 0 7 cbr 1000 ------- 0 2.0 7.0 5 5
+ 0.114 2 0 cbr 1000 ------- 0 2.0 7.0 8 9
- 0.114 2 0 cbr 1000 ------- 0 2.0 7.0 8 9
r 0.1176 2 0 cbr 1000 ------- 0 2.0 7.0 7 8
+ 0.1176 0 7 cbr 1000 ------- 0 2.0 7.0 7 8
- 0.1176 0 7 cbr 1000 ------- 0 2.0 7.0 7 8
r 0.120128 0 5 tcp 40 ------- 0 1.0 5.0 0 7
+ 0.120128 5 0 ack 40 ------- 0 5.0 1.0 0 10
- 0.120128 5 0 ack 40 ------- 0 5.0 1.0 0 10
r 0.1212 0 7 cbr 1000 ------- 0 2.0 7.0 6 6
+ 0.122 2 0 cbr 1000 ------- 0 2.0 7.0 9 11
- 0.122 2 0 cbr 1000 ------- 0 2.0 7.0 9 11
r 0.1256 2 0 cbr 1000 ------- 0 2.0 7.0 8 9
+ 0.1256 0 7 cbr 1000 ------- 0 2.0 7.0 8 9
- 0.1256 0 7 cbr 1000 ------- 0 2.0 7.0 8 9
r 0.1292 0 7 cbr 1000 ------- 0 2.0 7.0 7 8
+ 0.13 2 0 cbr 1000 ------- 0 2.0 7.0 10 12
- 0.13 2 0 cbr 1000 ------- 0 2.0 7.0 10 12
r 0.130192 5 0 ack 40 ------- 0 5.0 1.0 0 10
+ 0.130192 0 1 ack 40 ------- 0 5.0 1.0 0 10
- 0.130192 0 1 ack 40 ------- 0 5.0 1.0 0 10
r 0.1336 2 0 cbr 1000 ------- 0 2.0 7.0 9 11
+ 0.1336 0 7 cbr 1000 ------- 0 2.0 7.0 9 11
- 0.1336 0 7 cbr 1000 ------- 0 2.0 7.0 9 11
r 0.1372 0 7 cbr 1000 ------- 0 2.0 7.0 8 9
+ 0.138 2 0 cbr 1000 ------- 0 2.0 7.0 11 13
- 0.138 2 0 cbr 1000 ------- 0 2.0 7.0 11 13
r 0.140256 0 1 ack 40 ------- 0 5.0 1.0 0 10
+ 0.140256 1 0 tcp 1540 ------- 0 1.0 5.0 1 14
- 0.140256 1 0 tcp 1540 ------- 0 1.0 5.0 1 14
+ 0.140256 1 0 tcp 1540 ------- 0 1.0 5.0 2 15
r 0.1416 2 0 cbr 1000 ------- 0 2.0 7.0 10 12
+ 0.1416 0 7 cbr 1000 ------- 0 2.0 7.0 10 12
- 0.1416 0 7 cbr 1000 ------- 0 2.0 7.0 10 12
- 0.14272 1 0 tcp 1540 ------- 0 1.0 5.0 2 15
r 0.1452 0 7 cbr 1000 ------- 0 2.0 7.0 9 11
+ 0.146 2 0 cbr 1000 ------- 0 2.0 7.0 12 16
- 0.146 2 0 cbr 1000 ------- 0 2.0 7.0 12 16
r 0.1496 2 0 cbr 1000 ------- 0 2.0 7.0 11 13
+ 0.1496 0 7 cbr 1000 ------- 0 2.0 7.0 11 13
- 0.1496 0 7 cbr 1000 ------- 0 2.0 7.0 11 13
r 0.15272 1 0 tcp 1540 ------- 0 1.0 5.0 1 14
+ 0.15272 0 5 tcp 1540 ------- 0 1.0 5.0 1 14
- 0.15272 0 5 tcp 1540 ------- 0 1.0 5.0 1 14
r 0.1532 0 7 cbr 1000 ------- 0 2.0 7.0 10 12
+ 0.154 2 0 cbr 1000 ------- 0 2.0 7.0 13 17
- 0.154 2 0 cbr 1000 ------- 0 2.0 7.0 13 17
r 0.155184 1 0 tcp 1540 ------- 0 1.0 5.0 2 15
+ 0.155184 0 5 tcp 1540 ------- 0 1.0 5.0 2 15
- 0.155184 0 5 tcp 1540 ------- 0 1.0 5.0 2 15
r 0.1576 2 0 cbr 1000 ------- 0 2.0 7.0 12 16
+ 0.1576 0 7 cbr 1000 ------- 0 2.0 7.0 12 16
- 0.1576 0 7 cbr 1000 ------- 0 2.0 7.0 12 16
r 0.1612 0 7 cbr 1000 ------- 0 2.0 7.0 11 13
+ 0.162 2 0 cbr 1000 ------- 0 2.0 7.0 14 18
- 0.162 2 0 cbr 1000 ------- 0 2.0 7.0 14 18
r 0.165184 0 5 tcp 1540 ------- 0 1.0 5.0 1 14
+ 0.165184 5 0 ack 40 ------- 0 5.0 1.0 1 19
- 0.165184 5 0 ack 40 ------- 0 5.0 1.0 1 19
r 0.1656 2 0 cbr 1000 ------- 0 2.0 7.0 13 17
+ 0.1656 0 7 cbr 1000 ------- 0 2.0 7.0 13 17
- 0.1656 0 7 cbr 1000 ------- 0 2.0 7.0 13 17
r 0.167648 0 5 tcp 1540 ------- 0 1.0 5.0 2 15
+ 0.167648 5 0 ack 40 ------- 0 5.0 1.0 2 20
- 0.167648 5 0 ack 40 ------- 0 5.0 1.0 2 20
r 0.1692 0 7 cbr 1000 ------- 0 2.0 7.0 12 16
+ 0.17 2 0 cbr 1000 ------- 0 2.0 7.0 15 21
- 0.17 2 0 cbr 1000 ------- 0 2.0 7.0 15 21
r 0.1736 2 0 cbr 1000 ------- 0 2.0 7.0 14 18
+ 0.1736 0 7 cbr 1000 ------- 0 2.0 7.0 14 18
- 0.1736 0 7 cbr 1000 ------- 0 2.0 7.0 14 18
r 0.175248 5 0 ack 40 ------- 0 5.0 1.0 1 19
+ 0.175248 0 1 ack 40 ------- 0 5.0 1.0 1 19
- 0.175248 0 1 ack 40 ------- 0 5.0 1.0 1 19
r 0.1772 0 7 cbr 1000 ------- 0 2.0 7.0 13 17
r 0.177712 5 0 ack 40 ------- 0 5.0 1.0 2 20
+ 0.177712 0 1 ack 40 ------- 0 5.0 1.0 2 20
- 0.177712 0 1 ack 40 ------- 0 5.0 1.0 2 20
+ 0.178 2 0 cbr 1000 ------- 0 2.0 7.0 16 22
- 0.178 2 0 cbr 1000 ------- 0 2.0 7.0 16 22
r 0.1816 2 0 cbr 1000 ------- 0 2.0 7.0 15 21
+ 0.1816 0 7 cbr 1000 ------- 0 2.0 7.0 15 21
- 0.1816 0 7 cbr 1000 ------- 0 2.0 7.0 15 21
r 0.1852 0 7 cbr 1000 ------- 0 2.0 7.0 14 18
r 0.185312 0 1 ack 40 ------- 0 5.0 1.0 1 19
+ 0.185312 1 0 tcp 1540 ------- 0 1.0 5.0 3 23
- 0.185312 1 0 tcp 1540 ------- 0 1.0 5.0 3 23
+ 0.185312 1 0 tcp 1540 ------- 0 1.0 5.0 4 24
+ 0.186 2 0 cbr 1000 ------- 0 2.0 7.0 17 25
- 0.186 2 0 cbr 1000 ------- 0 2.0 7.0 17 25
r 0.187776 0 1 ack 40 ------- 0 5.0 1.0 2 20
+ 0.187776 1 0 tcp 1540 ------- 0 1.0 5.0 5 26
+ 0.187776 1 0 tcp 1540 ------- 0 1.0 5.0 6 27
- 0.187776 1 0 tcp 1540 ------- 0 1.0 5.0 4 24
r 0.1896 2 0 cbr 1000 ------- 0 2.0 7.0 16 22
+ 0.1896 0 7 cbr 1000 ------- 0 2.0 7.0 16 22
- 0.1896 0 7 cbr 1000 ------- 0 2.0 7.0 16 22
- 0.19024 1 0 tcp 1540 ------- 0 1.0 5.0 5 26
- 0.192704 1 0 tcp 1540 ------- 0 1.0 5.0 6 27
r 0.1932 0 7 cbr 1000 ------- 0 2.0 7.0 15 21
+ 0.194 2 0 cbr 1000 ------- 0 2.0 7.0 18 28
- 0.194 2 0 cbr 1000 ------- 0 2.0 7.0 18 28
r 0.1976 2 0 cbr 1000 ------- 0 2.0 7.0 17 25
+ 0.1976 0 7 cbr 1000 ------- 0 2.0 7.0 17 25
- 0.1976 0 7 cbr 1000 ------- 0 2.0 7.0 17 25
r 0.197776 1 0 tcp 1540 ------- 0 1.0 5.0 3 23
+ 0.197776 0 5 tcp 1540 ------- 0 1.0 5.0 3 23
- 0.197776 0 5 tcp 1540 ------- 0 1.0 5.0 3 23
r 0.20024 1 0 tcp 1540 ------- 0 1.0 5.0 4 24
+ 0.20024 0 5 tcp 1540 ------- 0 1.0 5.0 4 24
- 0.20024 0 5 tcp 1540 ------- 0 1.0 5.0 4 24
r 0.2012 0 7 cbr 1000 ------- 0 2.0 7.0 16 22
+ 0.202 2 0 cbr 1000 ------- 0 2.0 7.0 19 29
- 0.202 2 0 cbr 1000 ------- 0 2.0 7.0 19 29
r 0.202704 1 0 tcp 1540 ------- 0 1.0 5.0 5 26
+ 0.202704 0 5 tcp 1540 ------- 0 1.0 5.0 5 26
- 0.202704 0 5 tcp 1540 ------- 0 1.0 5.0 5 26
r 0.205168 1 0 tcp 1540 ------- 0 1.0 5.0 6 27
+ 0.205168 0 5 tcp 1540 ------- 0 1.0 5.0 6 27
- 0.205168 0 5 tcp 1540 ------- 0 1.0 5.0 6 27
r 0.2056 2 0 cbr 1000 ------- 0 2.0 7.0 18 28
+ 0.2056 0 7 cbr 1000 ------- 0 2.0 7.0 18 28
- 0.2056 0 7 cbr 1000 ------- 0 2.0 7.0 18 28
r 0.2092 0 7 cbr 1000 ------- 0 2.0 7.0 17 25
+ 0.21 2 0 cbr 1000 ------- 0 2.0 7.0 20 30
- 0.21 2 0 cbr 1000 ------- 0 2.0 7.0 20 30
r 0.21024 0 5 tcp 1540 ------- 0 1.0 5.0 3 23
+ 0.21024 5 0 ack 40 ------- 0 5.0 1.0 3 31
- 0.21024 5 0 ack 40 ------- 0 5.0 1.0 3 31
r 0.212704 0 5 tcp 1540 ------- 0 1.0 5.0 4 24
+ 0.212704 5 0 ack 40 ------- 0 5.0 1.0 4 32
- 0.212704 5 0 ack 40 ------- 0 5.0 1.0 4 32
r 0.2136 2 0 cbr 1000 ------- 0 2.0 7.0 19 29
+ 0.2136 0 7 cbr 1000 ------- 0 2.0 7.0 19 29
- 0.2136 0 7 cbr 1000 ------- 0 2.0 7.0 19 29
r 0.215168 0 5 tcp 1540 ------- 0 1.0 5.0 5 26
+ 0.215168 5 0 ack 40 ------- 0 5.0 1.0 5 33
- 0.215168 5 0 ack 40 ------- 0 5.0 1.0 5 33
r 0.2172 0 7 cbr 1000 ------- 0 2.0 7.0 18 28
r 0.217632 0 5 tcp 1540 ------- 0 1.0 5.0 6 27
+ 0.217632 5 0 ack 40 ------- 0 5.0 1.0 6 34
- 0.217632 5 0 ack 40 ------- 0 5.0 1.0 6 34
+ 0.218 2 0 cbr 1000 ------- 0 2.0 7.0 21 35
- 0.218 2 0 cbr 1000 ------- 0 2.0 7.0 21 35
r 0.220304 5 0 ack 40 ------- 0 5.0 1.0 3 31
+ 0.220304 0 1 ack 40 ------- 0 5.0 1.0 3 31
- 0.220304 0 1 ack 40 ------- 0 5.0 1.0 3 31
r 0.2216 2 0 cbr 1000 ------- 0 2.0 7.0 20 30
+ 0.2216 0 7 cbr 1000 ------- 0 2.0 7.0 20 30
- 0.2216 0 7 cbr 1000 ------- 0 2.0 7.0 20 30
r 0.222768 5 0 ack 40 ------- 0 5.0 1.0 4 32
+ 0.222768 0 1 ack 40 ------- 0 5.0 1.0 4 32
- 0.222768 0 1 ack 40 ------- 0 5.0 1.0 4 32
r 0.2252 0 7 cbr 1000 ------- 0 2.0 7.0 19 29
r 0.225232 5 0 ack 40 ------- 0 5.0 1.0 5 33
+ 0.225232 0 1 ack 40 ------- 0 5.0 1.0 5 33
- 0.225232 0 1 ack 40 ------- 0 5.0 1.0 5 33
+ 0.226 2 0 cbr 1000 ------- 0 2.0 7.0 22 36
- 0.226 2 0 cbr 1000 ------- 0 2.0 7.0 22 36
r 0.227696 5 0 ack 40 ------- 0 5.0 1.0 6 34
+ 0.227696 0 1 ack 40 ------- 0 5.0 1.0 6 34
- 0.227696 0 1 ack 40 ------- 0 5.0 1.0 6 34
r 0.2296 2 0 cbr 1000 ------- 0 2.0 7.0 21 35
+ 0.2296 0 7 cbr 1000 ------- 0 2.0 7.0 21 35
- 0.2296 0 7 cbr 1000 ------- 0 2.0 7.0 21 35
r 0.230368 0 1 ack 40 ------- 0 5.0 1.0 3 31
+ 0.230368 1 0 tcp 1540 ------- 0 1.0 5.0 7 37
- 0.230368 1 0 tcp 1540 ------- 0 1.0 5.0 7 37
+ 0.230368 1 0 tcp 1540 ------- 0 1.0 5.0 8 38
r 0.232832 0 1 ack 40 ------- 0 5.0 1.0 4 32
+ 0.232832 1 0 tcp 1540 ------- 0 1.0 5.0 9 39
+ 0.232832 1 0 tcp 1540 ------- 0 1.0 5.0 10 40
- 0.232832 1 0 tcp 1540 ------- 0 1.0 5.0 8 38
r 0.2332 0 7 cbr 1000 ------- 0 2.0 7.0 20 30
+ 0.234 2 0 cbr 1000 ------- 0 2.0 7.0 23 41
- 0.234 2 0 cbr 1000 ------- 0 2.0 7.0 23 41
r 0.235296 0 1 ack 40 ------- 0 5.0 1.0 5 33
+ 0.235296 1 0 tcp 1540 ------- 0 1.0 5.0 11 42
+ 0.235296 1 0 tcp 1540 ------- 0 1.0 5.0 12 43
- 0.235296 1 0 tcp 1540 ------- 0 1.0 5.0 9 39
r 0.2376 2 0 cbr 1000 ------- 0 2.0 7.0 22 36
+ 0.2376 0 7 cbr 1000 ------- 0 2.0 7.0 22 36
- 0.2376 0 7 cbr 1000 ------- 0 2.0 7.0 22 36
r 0.23776 0 1 ack 40 ------- 0 5.0 1.0 6 34
+ 0.23776 1 0 tcp 1540 ------- 0 1.0 5.0 13 44
+ 0.23776 1 0 tcp 1540 ------- 0 1.0 5.0 14 45
- 0.23776 1 0 tcp 1540 ------- 0 1.0 5.0 10 40
- 0.240224 1 0 tcp 1540 ------- 0 1.0 5.0 11 42
r 0.2412 0 7 cbr 1000 ------- 0 2.0 7.0 21 35
+ 0.242 2 0 cbr 1000 ------- 0 2.0 7.0 24 46
- 0.242 2 0 cbr 1000 ------- 0 2.0 7.0 24 46
- 0.242688 1 0 tcp 1540 ------- 0 1.0 5.0 12 43
r 0.242832 1 0 tcp 1540 ------- 0 1.0 5.0 7 37
+ 0.242832 0 5 tcp 1540 ------- 0 1.0 5.0 7 37
- 0.242832 0 5 tcp 1540 ------- 0 1.0 5.0 7 37
- 0.245152 1 0 tcp 1540 ------- 0 1.0 5.0 13 44
r 0.245296 1 0 tcp 1540 ------- 0 1.0 5.0 8 38
+ 0.245296 0 5 tcp 1540 ------- 0 1.0 5.0 8 38
- 0.245296 0 5 tcp 1540 ------- 0 1.0 5.0 8 38
r 0.2456 2 0 cbr 1000 ------- 0 2.0 7.0 23 41
+ 0.2456 0 7 cbr 1000 ------- 0 2.0 7.0 23 41
- 0.2456 0 7 cbr 1000 ------- 0 2.0 7.0 23 41
- 0.247616 1 0 tcp 1540 ------- 0 1.0 5.0 14 45
r 0.24776 1 0 tcp 1540 ------- 0 1.0 5.0 9 39
+ 0.24776 0 5 tcp 1540 ------- 0 1.0 5.0 9 39
- 0.24776 0 5 tcp 1540 ------- 0 1.0 5.0 9 39
r 0.2492 0 7 cbr 1000 ------- 0 2.0 7.0 22 36
+ 0.25 2 0 cbr 1000 ------- 0 2.0 7.0 25 47
- 0.25 2 0 cbr 1000 ------- 0 2.0 7.0 25 47
r 0.250224 1 0 tcp 1540 ------- 0 1.0 5.0 10 40
+ 0.250224 0 5 tcp 1540 ------- 0 1.0 5.0 10 40
- 0.250224 0 5 tcp 1540 ------- 0 1.0 5.0 10 40
r 0.252688 1 0 tcp 1540 ------- 0 1.0 5.0 11 42
+ 0.252688 0 5 tcp 1540 ------- 0 1.0 5.0 11 42
- 0.252688 0 5 tcp 1540 ------- 0 1.0 5.0 11 42
r 0.2536 2 0 cbr 1000 ------- 0 2.0 7.0 24 46
+ 0.2536 0 7 cbr 1000 ------- 0 2.0 7.0 24 46
- 0.2536 0 7 cbr 1000 ------- 0 2.0 7.0 24 46
r 0.255152 1 0 tcp 1540 ------- 0 1.0 5.0 12 43
+ 0.255152 0 5 tcp 1540 ------- 0 1.0 5.0 12 43
- 0.255152 0 5 tcp 1540 ------- 0 1.0 5.0 12 43
r 0.255296 0 5 tcp 1540 ------- 0 1.0 5.0 7 37
+ 0.255296 5 0 ack 40 ------- 0 5.0 1.0 7 48
- 0.255296 5 0 ack 40 ------- 0 5.0 1.0 7 48
r 0.2572 0 7 cbr 1000 ------- 0 2.0 7.0 23 41
r 0.257616 1 0 tcp 1540 ------- 0 1.0 5.0 13 44
+ 0.257616 0 5 tcp 1540 ------- 0 1.0 5.0 13 44
- 0.257616 0 5 tcp 1540 ------- 0 1.0 5.0 13 44
r 0.25776 0 5 tcp 1540 ------- 0 1.0 5.0 8 38
+ 0.25776 5 0 ack 40 ------- 0 5.0 1.0 8 49
- 0.25776 5 0 ack 40 ------- 0 5.0 1.0 8 49
+ 0.258 2 0 cbr 1000 ------- 0 2.0 7.0 26 50
- 0.258 2 0 cbr 1000 ------- 0 2.0 7.0 26 50
r 0.26008 1 0 tcp 1540 ------- 0 1.0 5.0 14 45
+ 0.26008 0 5 tcp 1540 ------- 0 1.0 5.0 14 45
- 0.26008 0 5 tcp 1540 ------- 0 1.0 5.0 14 45
r 0.260224 0 5 tcp 1540 ------- 0 1.0 5.0 9 39
+ 0.260224 5 0 ack 40 ------- 0 5.0 1.0 9 51
- 0.260224 5 0 ack 40 ------- 0 5.0 1.0 9 51
r 0.2616 2 0 cbr 1000 ------- 0 2.0 7.0 25 47
+ 0.2616 0 7 cbr 1000 ------- 0 2.0 7.0 25 47
- 0.2616 0 7 cbr 1000 ------- 0 2.0 7.0 25 47
r 0.262688 0 5 tcp 1540 ------- 0 1.0 5.0 10 40
+ 0.262688 5 0 ack 40 ------- 0 5.0 1.0 10 52
- 0.262688 5 0 ack 40 ------- 0 5.0 1.0 10 52
r 0.265152 0 5 tcp 1540 ------- 0 1.0 5.0 11 42
+ 0.265152 5 0 ack 40 ------- 0 5.0 1.0 11 53
- 0.265152 5 0 ack 40 ------- 0 5.0 1.0 11 53
r 0.2652 0 7 cbr 1000 ------- 0 2.0 7.0 24 46
r 0.26536 5 0 ack 40 ------- 0 5.0 1.0 7 48
+ 0.26536 0 1 ack 40 ------- 0 5.0 1.0 7 48
- 0.26536 0 1 ack 40 ------- 0 5.0 1.0 7 48
+ 0.266 2 0 cbr 1000 ------- 0 2.0 7.0 27 54
- 0.266 2 0 cbr 1000 ------- 0 2.0 7.0 27 54
r 0.267616 0 5 tcp 1540 ------- 0 1.0 5.0 12 43
+ 0.267616 5 0 ack 40 ------- 0 5.0 1.0 12 55
- 0.267616 5 0 ack 40 ------- 0 5.0 1.0 12 55
r 0.267824 5 0 ack 40 ------- 0 5.0 1.0 8 49
+ 0.267824 0 1 ack 40 ------- 0 5.0 1.0 8 49
- 0.267824 0 1 ack 40 ------- 0 5.0 1.0 8 49
r 0.2696 2 0 cbr 1000 ------- 0 2.0 7.0 26 50
+ 0.2696 0 7 cbr 1000 ------- 0 2.0 7.0 26 50
- 0.2696 0 7 cbr 1000 ------- 0 2.0 7.0 26 50
r 0.27008 0 5 tcp 1540 ------- 0 1.0 5.0 13 44
+ 0.27008 5 0 ack 40 ------- 0 5.0 1.0 13 56
- 0.27008 5 0 ack 40 ------- 0 5.0 1.0 13 56
r 0.270288 5 0 ack 40 ------- 0 5.0 1.0 9 51
+ 0.270288 0 1 ack 40 ------- 0 5.0 1.0 9 51
- 0.270288 0 1 ack 40 ------- 0 5.0 1.0 9 51
r 0.272544 0 5 tcp 1540 ------- 0 1.0 5.0 14 45
+ 0.272544 5 0 ack 40 ------- 0 5.0 1.0 14 57
- 0.272544 5 0 ack 40 ------- 0 5.0 1.0 14 57
r 0.272752 5 0 ack 40 ------- 0 5.0 1.0 10 52
+ 0.272752 0 1 ack 40 ------- 0 5.0 1.0 10 52
- 0.272752 0 1 ack 40 ------- 0 5.0 1.0 10 52
r 0.2732 0 7 cbr 1000 ------- 0 2.0 7.0 25 47
+ 0.274 2 0 cbr 1000 ------- 0 2.0 7.0 28 58
- 0.274 2 0 cbr 1000 ------- 0 2.0 7.0 28 58
r 0.275216 5 0 ack 40 ------- 0 5.0 1.0 11 53
+ 0.275216 0 1 ack 40 ------- 0 5.0 1.0 11 53
- 0.275216 0 1 ack 40 ------- 0 5.0 1.0 11 53
r 0.275424 0 1 ack 40 ------- 0 5.0 1.0 7 48
+ 0.275424 1 0 tcp 1540 ------- 0 1.0 5.0 15 59
- 0.275424 1 0 tcp 1540 ------- 0 1.0 5.0 15 59
+ 0.275424 1 0 tcp 1540 ------- 0 1.0 5.0 16 60
r 0.2776 2 0 cbr 1000 ------- 0 2.0 7.0 27 54
+ 0.2776 0 7 cbr 1000 ------- 0 2.0 7.0 27 54
- 0.2776 0 7 cbr 1000 ------- 0 2.0 7.0 27 54
r 0.27768 5 0 ack 40 ------- 0 5.0 1.0 12 55
+ 0.27768 0 1 ack 40 ------- 0 5.0 1.0 12 55
- 0.27768 0 1 ack 40 ------- 0 5.0 1.0 12 55
r 0.277888 0 1 ack 40 ------- 0 5.0 1.0 8 49
+ 0.277888 1 0 tcp 1540 ------- 0 1.0 5.0 17 61
+ 0.277888 1 0 tcp 1540 ------- 0 1.0 5.0 18 62
- 0.277888 1 0 tcp 1540 ------- 0 1.0 5.0 16 60
r 0.280144 5 0 ack 40 ------- 0 5.0 1.0 13 56
+ 0.280144 0 1 ack 40 ------- 0 5.0 1.0 13 56
- 0.280144 0 1 ack 40 ------- 0 5.0 1.0 13 56
r 0.280352 0 1 ack 40 ------- 0 5.0 1.0 9 51
+ 0.280352 1 0 tcp 1540 ------- 0 1.0 5.0 19 63
+ 0.280352 1 0 tcp 1540 ------- 0 1.0 5.0 20 64
- 0.280352 1 0 tcp 1540 ------- 0 1.0 5.0 17 61
r 0.2812 0 7 cbr 1000 ------- 0 2.0 7.0 26 50
+ 0.282 2 0 cbr 1000 ------- 0 2.0 7.0 29 65
- 0.282 2 0 cbr 1000 ------- 0 2.0 7.0 29 65
r 0.282608 5 0 ack 40 ------- 0 5.0 1.0 14 57
+ 0.282608 0 1 ack 40 ------- 0 5.0 1.0 14 57
- 0.282608 0 1 ack 40 ------- 0 5.0 1.0 14 57
r 0.282816 0 1 ack 40 ------- 0 5.0 1.0 10 52
+ 0.282816 1 0 tcp 1540 ------- 0 1.0 5.0 21 66
+ 0.282816 1 0 tcp 1540 ------- 0 1.0 5.0 22 67
- 0.282816 1 0 tcp 1540 ------- 0 1.0 5.0 18 62
r 0.28528 0 1 ack 40 ------- 0 5.0 1.0 11 53
+ 0.28528 1 0 tcp 1540 ------- 0 1.0 5.0 23 68
+ 0.28528 1 0 tcp 1540 ------- 0 1.0 5.0 24 69
- 0.28528 1 0 tcp 1540 ------- 0 1.0 5.0 19 63
r 0.2856 2 0 cbr 1000 ------- 0 2.0 7.0 28 58
+ 0.2856 0 7 cbr 1000 ------- 0 2.0 7.0 28 58
- 0.2856 0 7 cbr 1000 ------- 0 2.0 7.0 28 58
r 0.287744 0 1 ack 40 ------- 0 5.0 1.0 12 55
+ 0.287744 1 0 tcp 1540 ------- 0 1.0 5.0 25 70
+ 0.287744 1 0 tcp 1540 ------- 0 1.0 5.0 26 71
- 0.287744 1 0 tcp 1540 ------- 0 1.0 5.0 20 64
r 0.287888 1 0 tcp 1540 ------- 0 1.0 5.0 15 59
+ 0.287888 0 5 tcp 1540 ------- 0 1.0 5.0 15 59
- 0.287888 0 5 tcp 1540 ------- 0 1.0 5.0 15 59
r 0.2892 0 7 cbr 1000 ------- 0 2.0 7.0 27 54
+ 0.29 2 0 cbr 1000 ------- 0 2.0 7.0 30 72
- 0.29 2 0 cbr 1000 ------- 0 2.0 7.0 30 72
r 0.290208 0 1 ack 40 ------- 0 5.0 1.0 13 56
+ 0.290208 1 0 tcp 1540 ------- 0 1.0 5.0 27 73
+ 0.290208 1 0 tcp 1540 ------- 0 1.0 5.0 28 74
- 0.290208 1 0 tcp 1540 ------- 0 1.0 5.0 21 66
r 0.290352 1 0 tcp 1540 ------- 0 1.0 5.0 16 60
+ 0.290352 0 5 tcp 1540 ------- 0 1.0 5.0 16 60
- 0.290352 0 5 tcp 1540 ------- 0 1.0 5.0 16 60
r 0.292672 0 1 ack 40 ------- 0 5.0 1.0 14 57
+ 0.292672 1 0 tcp 1540 ------- 0 1.0 5.0 29 75
+ 0.292672 1 0 tcp 1540 ------- 0 1.0 5.0 30 76
- 0.292672 1 0 tcp 1540 ------- 0 1.0 5.0 22 67
r 0.292816 1 0 tcp 1540 ------- 0 1.0 5.0 17 61
+ 0.292816 0 5 tcp 1540 ------- 0 1.0 5.0 17 61
- 0.292816 0 5 tcp 1540 ------- 0 1.0 5.0 17 61
r 0.2936 2 0 cbr 1000 ------- 0 2.0 7.0 29 65
+ 0.2936 0 7 cbr 1000 ------- 0 2.0 7.0 29 65
- 0.2936 0 7 cbr 1000 ------- 0 2.0 7.0 29 65
- 0.295136 1 0 tcp 1540 ------- 0 1.0 5.0 23 68
r 0.29528 1 0 tcp 1540 ------- 0 1.0 5.0 18 62
+ 0.29528 0 5 tcp 1540 ------- 0 1.0 5.0 18 62
- 0.29528 0 5 tcp 1540 ------- 0 1.0 5.0 18 62
r 0.2972 0 7 cbr 1000 ------- 0 2.0 7.0 28 58
- 0.2976 1 0 tcp 1540 ------- 0 1.0 5.0 24 69
r 0.297744 1 0 tcp 1540 ------- 0 1.0 5.0 19 63
+ 0.297744 0 5 tcp 1540 ------- 0 1.0 5.0 19 63
- 0.297744 0 5 tcp 1540 ------- 0 1.0 5.0 19 63
+ 0.298 2 0 cbr 1000 ------- 0 2.0 7.0 31 77
- 0.298 2 0 cbr 1000 ------- 0 2.0 7.0 31 77
v 0.29999999999999999 link-down 7 0
v 0.29999999999999999 link-down 7 0
d 0.3 0 7 cbr 1000 ------- 0 2.0 7.0 29 65
v 0.29999999999999999 link-down 0 7
v 0.29999999999999999 link-down 0 7
- 0.300064 1 0 tcp 1540 ------- 0 1.0 5.0 25 70
r 0.300208 1 0 tcp 1540 ------- 0 1.0 5.0 20 64
+ 0.300208 0 5 tcp 1540 ------- 0 1.0 5.0 20 64
- 0.300208 0 5 tcp 1540 ------- 0 1.0 5.0 20 64
r 0.300352 0 5 tcp 1540 ------- 0 1.0 5.0 15 59
+ 0.300352 5 0 ack 40 ------- 0 5.0 1.0 15 78
- 0.300352 5 0 ack 40 ------- 0 5.0 1.0 15 78
r 0.3016 2 0 cbr 1000 ------- 0 2.0 7.0 30 72
- 0.302528 1 0 tcp 1540 ------- 0 1.0 5.0 26 71
r 0.302672 1 0 tcp 1540 ------- 0 1.0 5.0 21 66
+ 0.302672 0 5 tcp 1540 ------- 0 1.0 5.0 21 66
- 0.302672 0 5 tcp 1540 ------- 0 1.0 5.0 21 66
r 0.302816 0 5 tcp 1540 ------- 0 1.0 5.0 16 60
+ 0.302816 5 0 ack 40 ------- 0 5.0 1.0 16 79
- 0.302816 5 0 ack 40 ------- 0 5.0 1.0 16 79
- 0.304992 1 0 tcp 1540 ------- 0 1.0 5.0 27 73
r 0.305136 1 0 tcp 1540 ------- 0 1.0 5.0 22 67
+ 0.305136 0 5 tcp 1540 ------- 0 1.0 5.0 22 67
- 0.305136 0 5 tcp 1540 ------- 0 1.0 5.0 22 67
r 0.30528 0 5 tcp 1540 ------- 0 1.0 5.0 17 61
+ 0.30528 5 0 ack 40 ------- 0 5.0 1.0 17 80
- 0.30528 5 0 ack 40 ------- 0 5.0 1.0 17 80
+ 0.306 2 0 cbr 1000 ------- 0 2.0 7.0 32 81
- 0.306 2 0 cbr 1000 ------- 0 2.0 7.0 32 81
- 0.307456 1 0 tcp 1540 ------- 0 1.0 5.0 28 74
r 0.3076 1 0 tcp 1540 ------- 0 1.0 5.0 23 68
+ 0.3076 0 5 tcp 1540 ------- 0 1.0 5.0 23 68
- 0.3076 0 5 tcp 1540 ------- 0 1.0 5.0 23 68
r 0.307744 0 5 tcp 1540 ------- 0 1.0 5.0 18 62
+ 0.307744 5 0 ack 40 ------- 0 5.0 1.0 18 82
- 0.307744 5 0 ack 40 ------- 0 5.0 1.0 18 82
r 0.3096 2 0 cbr 1000 ------- 0 2.0 7.0 31 77
- 0.30992 1 0 tcp 1540 ------- 0 1.0 5.0 29 75
r 0.310064 1 0 tcp 1540 ------- 0 1.0 5.0 24 69
+ 0.310064 0 5 tcp 1540 ------- 0 1.0 5.0 24 69
- 0.310064 0 5 tcp 1540 ------- 0 1.0 5.0 24 69
r 0.310208 0 5 tcp 1540 ------- 0 1.0 5.0 19 63
+ 0.310208 5 0 ack 40 ------- 0 5.0 1.0 19 83
- 0.310208 5 0 ack 40 ------- 0 5.0 1.0 19 83
r 0.310416 5 0 ack 40 ------- 0 5.0 1.0 15 78
+ 0.310416 0 1 ack 40 ------- 0 5.0 1.0 15 78
- 0.310416 0 1 ack 40 ------- 0 5.0 1.0 15 78
- 0.312384 1 0 tcp 1540 ------- 0 1.0 5.0 30 76
r 0.312528 1 0 tcp 1540 ------- 0 1.0 5.0 25 70
+ 0.312528 0 5 tcp 1540 ------- 0 1.0 5.0 25 70
- 0.312528 0 5 tcp 1540 ------- 0 1.0 5.0 25 70
r 0.312672 0 5 tcp 1540 ------- 0 1.0 5.0 20 64
+ 0.312672 5 0 ack 40 ------- 0 5.0 1.0 20 84
- 0.312672 5 0 ack 40 ------- 0 5.0 1.0 20 84
r 0.31288 5 0 ack 40 ------- 0 5.0 1.0 16 79
+ 0.31288 0 1 ack 40 ------- 0 5.0 1.0 16 79
- 0.31288 0 1 ack 40 ------- 0 5.0 1.0 16 79
+ 0.314 2 0 cbr 1000 ------- 0 2.0 7.0 33 85
- 0.314 2 0 cbr 1000 ------- 0 2.0 7.0 33 85
r 0.314992 1 0 tcp 1540 ------- 0 1.0 5.0 26 71
+ 0.314992 0 5 tcp 1540 ------- 0 1.0 5.0 26 71
- 0.314992 0 5 tcp 1540 ------- 0 1.0 5.0 26 71
r 0.315136 0 5 tcp 1540 ------- 0 1.0 5.0 21 66
+ 0.315136 5 0 ack 40 ------- 0 5.0 1.0 21 86
- 0.315136 5 0 ack 40 ------- 0 5.0 1.0 21 86
r 0.315344 5 0 ack 40 ------- 0 5.0 1.0 17 80
+ 0.315344 0 1 ack 40 ------- 0 5.0 1.0 17 80
- 0.315344 0 1 ack 40 ------- 0 5.0 1.0 17 80
r 0.317456 1 0 tcp 1540 ------- 0 1.0 5.0 27 73
+ 0.317456 0 5 tcp 1540 ------- 0 1.0 5.0 27 73
- 0.317456 0 5 tcp 1540 ------- 0 1.0 5.0 27 73
r 0.3176 0 5 tcp 1540 ------- 0 1.0 5.0 22 67
+ 0.3176 5 0 ack 40 ------- 0 5.0 1.0 22 87
- 0.3176 5 0 ack 40 ------- 0 5.0 1.0 22 87
r 0.3176 2 0 cbr 1000 ------- 0 2.0 7.0 32 81
r 0.317808 5 0 ack 40 ------- 0 5.0 1.0 18 82
+ 0.317808 0 1 ack 40 ------- 0 5.0 1.0 18 82
- 0.317808 0 1 ack 40 ------- 0 5.0 1.0 18 82
r 0.31992 1 0 tcp 1540 ------- 0 1.0 5.0 28 74
+ 0.31992 0 5 tcp 1540 ------- 0 1.0 5.0 28 74
- 0.31992 0 5 tcp 1540 ------- 0 1.0 5.0 28 74
r 0.320064 0 5 tcp 1540 ------- 0 1.0 5.0 23 68
+ 0.320064 5 0 ack 40 ------- 0 5.0 1.0 23 88
- 0.320064 5 0 ack 40 ------- 0 5.0 1.0 23 88
r 0.320272 5 0 ack 40 ------- 0 5.0 1.0 19 83
+ 0.320272 0 1 ack 40 ------- 0 5.0 1.0 19 83
- 0.320272 0 1 ack 40 ------- 0 5.0 1.0 19 83
r 0.32048 0 1 ack 40 ------- 0 5.0 1.0 15 78
+ 0.32048 1 0 tcp 1540 ------- 0 1.0 5.0 31 89
- 0.32048 1 0 tcp 1540 ------- 0 1.0 5.0 31 89
+ 0.32048 1 0 tcp 1540 ------- 0 1.0 5.0 32 90
+ 0.322 2 0 cbr 1000 ------- 0 2.0 7.0 34 91
- 0.322 2 0 cbr 1000 ------- 0 2.0 7.0 34 91
r 0.322384 1 0 tcp 1540 ------- 0 1.0 5.0 29 75
+ 0.322384 0 5 tcp 1540 ------- 0 1.0 5.0 29 75
- 0.322384 0 5 tcp 1540 ------- 0 1.0 5.0 29 75
r 0.322528 0 5 tcp 1540 ------- 0 1.0 5.0 24 69
+ 0.322528 5 0 ack 40 ------- 0 5.0 1.0 24 92
- 0.322528 5 0 ack 40 ------- 0 5.0 1.0 24 92
r 0.322736 5 0 ack 40 ------- 0 5.0 1.0 20 84
+ 0.322736 0 1 ack 40 ------- 0 5.0 1.0 20 84
- 0.322736 0 1 ack 40 ------- 0 5.0 1.0 20 84
r 0.322944 0 1 ack 40 ------- 0 5.0 1.0 16 79
+ 0.322944 1 0 tcp 1540 ------- 0 1.0 5.0 33 93
+ 0.322944 1 0 tcp 1540 ------- 0 1.0 5.0 34 94
- 0.322944 1 0 tcp 1540 ------- 0 1.0 5.0 32 90
r 0.324848 1 0 tcp 1540 ------- 0 1.0 5.0 30 76
+ 0.324848 0 5 tcp 1540 ------- 0 1.0 5.0 30 76
- 0.324848 0 5 tcp 1540 ------- 0 1.0 5.0 30 76
r 0.324992 0 5 tcp 1540 ------- 0 1.0 5.0 25 70
+ 0.324992 5 0 ack 40 ------- 0 5.0 1.0 25 95
- 0.324992 5 0 ack 40 ------- 0 5.0 1.0 25 95
r 0.3252 5 0 ack 40 ------- 0 5.0 1.0 21 86
+ 0.3252 0 1 ack 40 ------- 0 5.0 1.0 21 86
- 0.3252 0 1 ack 40 ------- 0 5.0 1.0 21 86
r 0.325408 0 1 ack 40 ------- 0 5.0 1.0 17 80
+ 0.325408 1 0 tcp 1540 ------- 0 1.0 5.0 35 96
+ 0.325408 1 0 tcp 1540 ------- 0 1.0 5.0 36 97
- 0.325408 1 0 tcp 1540 ------- 0 1.0 5.0 33 93
r 0.3256 2 0 cbr 1000 ------- 0 2.0 7.0 33 85
r 0.327456 0 5 tcp 1540 ------- 0 1.0 5.0 26 71
+ 0.327456 5 0 ack 40 ------- 0 5.0 1.0 26 98
- 0.327456 5 0 ack 40 ------- 0 5.0 1.0 26 98
r 0.327664 5 0 ack 40 ------- 0 5.0 1.0 22 87
+ 0.327664 0 1 ack 40 ------- 0 5.0 1.0 22 87
- 0.327664 0 1 ack 40 ------- 0 5.0 1.0 22 87
r 0.327872 0 1 ack 40 ------- 0 5.0 1.0 18 82
+ 0.327872 1 0 tcp 1540 ------- 0 1.0 5.0 37 99
+ 0.327872 1 0 tcp 1540 ------- 0 1.0 5.0 38 100
- 0.327872 1 0 tcp 1540 ------- 0 1.0 5.0 34 94
r 0.32992 0 5 tcp 1540 ------- 0 1.0 5.0 27 73
+ 0.32992 5 0 ack 40 ------- 0 5.0 1.0 27 101
- 0.32992 5 0 ack 40 ------- 0 5.0 1.0 27 101
+ 0.33 2 0 cbr 1000 ------- 0 2.0 7.0 35 102
- 0.33 2 0 cbr 1000 ------- 0 2.0 7.0 35 102
r 0.330128 5 0 ack 40 ------- 0 5.0 1.0 23 88
+ 0.330128 0 1 ack 40 ------- 0 5.0 1.0 23 88
- 0.330128 0 1 ack 40 ------- 0 5.0 1.0 23 88
r 0.330336 0 1 ack 40 ------- 0 5.0 1.0 19 83
+ 0.330336 1 0 tcp 1540 ------- 0 1.0 5.0 39 103
- 0.330336 1 0 tcp 1540 ------- 0 1.0 5.0 35 96
r 0.332384 0 5 tcp 1540 ------- 0 1.0 5.0 28 74
+ 0.332384 5 0 ack 40 ------- 0 5.0 1.0 28 104
- 0.332384 5 0 ack 40 ------- 0 5.0 1.0 28 104
r 0.332592 5 0 ack 40 ------- 0 5.0 1.0 24 92
+ 0.332592 0 1 ack 40 ------- 0 5.0 1.0 24 92
- 0.332592 0 1 ack 40 ------- 0 5.0 1.0 24 92
r 0.3328 0 1 ack 40 ------- 0 5.0 1.0 20 84
+ 0.3328 1 0 tcp 1540 ------- 0 1.0 5.0 40 105
- 0.3328 1 0 tcp 1540 ------- 0 1.0 5.0 36 97
r 0.332944 1 0 tcp 1540 ------- 0 1.0 5.0 31 89
+ 0.332944 0 5 tcp 1540 ------- 0 1.0 5.0 31 89
- 0.332944 0 5 tcp 1540 ------- 0 1.0 5.0 31 89
r 0.3336 2 0 cbr 1000 ------- 0 2.0 7.0 34 91
r 0.334848 0 5 tcp 1540 ------- 0 1.0 5.0 29 75
+ 0.334848 5 0 ack 40 ------- 0 5.0 1.0 29 106
- 0.334848 5 0 ack 40 ------- 0 5.0 1.0 29 106
r 0.335056 5 0 ack 40 ------- 0 5.0 1.0 25 95
+ 0.335056 0 1 ack 40 ------- 0 5.0 1.0 25 95
- 0.335056 0 1 ack 40 ------- 0 5.0 1.0 25 95
r 0.335264 0 1 ack 40 ------- 0 5.0 1.0 21 86
+ 0.335264 1 0 tcp 1540 ------- 0 1.0 5.0 41 107
- 0.335264 1 0 tcp 1540 ------- 0 1.0 5.0 37 99
r 0.335408 1 0 tcp 1540 ------- 0 1.0 5.0 32 90
+ 0.335408 0 5 tcp 1540 ------- 0 1.0 5.0 32 90
- 0.335408 0 5 tcp 1540 ------- 0 1.0 5.0 32 90
r 0.337312 0 5 tcp 1540 ------- 0 1.0 5.0 30 76
+ 0.337312 5 0 ack 40 ------- 0 5.0 1.0 30 108
- 0.337312 5 0 ack 40 ------- 0 5.0 1.0 30 108
r 0.33752 5 0 ack 40 ------- 0 5.0 1.0 26 98
+ 0.33752 0 1 ack 40 ------- 0 5.0 1.0 26 98
- 0.33752 0 1 ack 40 ------- 0 5.0 1.0 26 98
r 0.337728 0 1 ack 40 ------- 0 5.0 1.0 22 87
+ 0.337728 1 0 tcp 1540 ------- 0 1.0 5.0 42 109
- 0.337728 1 0 tcp 1540 ------- 0 1.0 5.0 38 100
r 0.337872 1 0 tcp 1540 ------- 0 1.0 5.0 33 93
+ 0.337872 0 5 tcp 1540 ------- 0 1.0 5.0 33 93
- 0.337872 0 5 tcp 1540 ------- 0 1.0 5.0 33 93
+ 0.338 2 0 cbr 1000 ------- 0 2.0 7.0 36 110
- 0.338 2 0 cbr 1000 ------- 0 2.0 7.0 36 110
r 0.339984 5 0 ack 40 ------- 0 5.0 1.0 27 101
+ 0.339984 0 1 ack 40 ------- 0 5.0 1.0 27 101
- 0.339984 0 1 ack 40 ------- 0 5.0 1.0 27 101
r 0.340192 0 1 ack 40 ------- 0 5.0 1.0 23 88
+ 0.340192 1 0 tcp 1540 ------- 0 1.0 5.0 43 111
- 0.340192 1 0 tcp 1540 ------- 0 1.0 5.0 39 103
r 0.340336 1 0 tcp 1540 ------- 0 1.0 5.0 34 94
+ 0.340336 0 5 tcp 1540 ------- 0 1.0 5.0 34 94
- 0.340336 0 5 tcp 1540 ------- 0 1.0 5.0 34 94
r 0.3416 2 0 cbr 1000 ------- 0 2.0 7.0 35 102
r 0.342448 5 0 ack 40 ------- 0 5.0 1.0 28 104
+ 0.342448 0 1 ack 40 ------- 0 5.0 1.0 28 104
- 0.342448 0 1 ack 40 ------- 0 5.0 1.0 28 104
r 0.342656 0 1 ack 40 ------- 0 5.0 1.0 24 92
+ 0.342656 1 0 tcp 1540 ------- 0 1.0 5.0 44 112
- 0.342656 1 0 tcp 1540 ------- 0 1.0 5.0 40 105
r 0.3428 1 0 tcp 1540 ------- 0 1.0 5.0 35 96
+ 0.3428 0 5 tcp 1540 ------- 0 1.0 5.0 35 96
- 0.3428 0 5 tcp 1540 ------- 0 1.0 5.0 35 96
r 0.344912 5 0 ack 40 ------- 0 5.0 1.0 29 106
+ 0.344912 0 1 ack 40 ------- 0 5.0 1.0 29 106
- 0.344912 0 1 ack 40 ------- 0 5.0 1.0 29 106
r 0.34512 0 1 ack 40 ------- 0 5.0 1.0 25 95
+ 0.34512 1 0 tcp 1540 ------- 0 1.0 5.0 45 113
- 0.34512 1 0 tcp 1540 ------- 0 1.0 5.0 41 107
r 0.345264 1 0 tcp 1540 ------- 0 1.0 5.0 36 97
+ 0.345264 0 5 tcp 1540 ------- 0 1.0 5.0 36 97
- 0.345264 0 5 tcp 1540 ------- 0 1.0 5.0 36 97
r 0.345408 0 5 tcp 1540 ------- 0 1.0 5.0 31 89
+ 0.345408 5 0 ack 40 ------- 0 5.0 1.0 31 114
- 0.345408 5 0 ack 40 ------- 0 5.0 1.0 31 114
+ 0.346 2 0 cbr 1000 ------- 0 2.0 7.0 37 115
- 0.346 2 0 cbr 1000 ------- 0 2.0 7.0 37 115
r 0.347376 5 0 ack 40 ------- 0 5.0 1.0 30 108
+ 0.347376 0 1 ack 40 ------- 0 5.0 1.0 30 108
- 0.347376 0 1 ack 40 ------- 0 5.0 1.0 30 108
r 0.347584 0 1 ack 40 ------- 0 5.0 1.0 26 98
+ 0.347584 1 0 tcp 1540 ------- 0 1.0 5.0 46 116
- 0.347584 1 0 tcp 1540 ------- 0 1.0 5.0 42 109
r 0.347728 1 0 tcp 1540 ------- 0 1.0 5.0 37 99
+ 0.347728 0 5 tcp 1540 ------- 0 1.0 5.0 37 99
- 0.347728 0 5 tcp 1540 ------- 0 1.0 5.0 37 99
r 0.347872 0 5 tcp 1540 ------- 0 1.0 5.0 32 90
+ 0.347872 5 0 ack 40 ------- 0 5.0 1.0 32 117
- 0.347872 5 0 ack 40 ------- 0 5.0 1.0 32 117
r 0.3496 2 0 cbr 1000 ------- 0 2.0 7.0 36 110
r 0.350048 0 1 ack 40 ------- 0 5.0 1.0 27 101
+ 0.350048 1 0 tcp 1540 ------- 0 1.0 5.0 47 118
- 0.350048 1 0 tcp 1540 ------- 0 1.0 5.0 43 111
r 0.350192 1 0 tcp 1540 ------- 0 1.0 5.0 38 100
+ 0.350192 0 5 tcp 1540 ------- 0 1.0 5.0 38 100
- 0.350192 0 5 tcp 1540 ------- 0 1.0 5.0 38 100
r 0.350336 0 5 tcp 1540 ------- 0 1.0 5.0 33 93
+ 0.350336 5 0 ack 40 ------- 0 5.0 1.0 33 119
- 0.350336 5 0 ack 40 ------- 0 5.0 1.0 33 119
r 0.352512 0 1 ack 40 ------- 0 5.0 1.0 28 104
+ 0.352512 1 0 tcp 1540 ------- 0 1.0 5.0 48 120
- 0.352512 1 0 tcp 1540 ------- 0 1.0 5.0 44 112
r 0.352656 1 0 tcp 1540 ------- 0 1.0 5.0 39 103
+ 0.352656 0 5 tcp 1540 ------- 0 1.0 5.0 39 103
- 0.352656 0 5 tcp 1540 ------- 0 1.0 5.0 39 103
r 0.3528 0 5 tcp 1540 ------- 0 1.0 5.0 34 94
+ 0.3528 5 0 ack 40 ------- 0 5.0 1.0 34 121
- 0.3528 5 0 ack 40 ------- 0 5.0 1.0 34 121
+ 0.354 2 0 cbr 1000 ------- 0 2.0 7.0 38 122
- 0.354 2 0 cbr 1000 ------- 0 2.0 7.0 38 122